<VTKFile type="UnstructuredGrid" byte_order="BigEndian">
<UnstructuredGrid><Piece NumberOfPoints="30" NumberOfCells="14">
<Points>
 <DataArray type="Float32" NumberOfComponents="3" format="ascii">
 8.905529022216796875e+00 0.000000000000000000e+00 0.000000000000000000e+00
 8.911856651306152344e+00 0.000000000000000000e+00 0.000000000000000000e+00
 8.918184280395507812e+00 0.000000000000000000e+00 0.000000000000000000e+00
 8.924512863159179688e+00 0.000000000000000000e+00 0.000000000000000000e+00
 8.930840492248535156e+00 0.000000000000000000e+00 0.000000000000000000e+00
 8.937168121337890625e+00 0.000000000000000000e+00 0.000000000000000000e+00
 8.943495750427246094e+00 0.000000000000000000e+00 0.000000000000000000e+00
 8.949824333190917969e+00 0.000000000000000000e+00 0.000000000000000000e+00
 8.956151962280273438e+00 0.000000000000000000e+00 0.000000000000000000e+00
 8.962479591369628906e+00 0.000000000000000000e+00 0.000000000000000000e+00
 8.968807220458984375e+00 0.000000000000000000e+00 0.000000000000000000e+00
 8.975135803222656250e+00 0.000000000000000000e+00 0.000000000000000000e+00
 8.981463432312011719e+00 0.000000000000000000e+00 0.000000000000000000e+00
 8.987791061401367188e+00 0.000000000000000000e+00 0.000000000000000000e+00
 8.994118690490722656e+00 0.000000000000000000e+00 0.000000000000000000e+00
 8.905529022216796875e+00 6.052099913358688354e-02 0.000000000000000000e+00
 8.911856651306152344e+00 6.091471388936042786e-02 0.000000000000000000e+00
 8.918184280395507812e+00 6.130842864513397217e-02 0.000000000000000000e+00
 8.924512863159179688e+00 6.170214340090751648e-02 0.000000000000000000e+00
 8.930840492248535156e+00 6.209585815668106079e-02 0.000000000000000000e+00
 8.937168121337890625e+00 6.248957291245460510e-02 0.000000000000000000e+00
 8.943495750427246094e+00 6.288328766822814941e-02 0.000000000000000000e+00
 8.949824333190917969e+00 6.327699869871139526e-02 0.000000000000000000e+00
 8.956151962280273438e+00 6.367071717977523804e-02 0.000000000000000000e+00
 8.962479591369628906e+00 6.406442821025848389e-02 0.000000000000000000e+00
 8.968807220458984375e+00 6.445813924074172974e-02 0.000000000000000000e+00
 8.975135803222656250e+00 6.485185772180557251e-02 0.000000000000000000e+00
 8.981463432312011719e+00 6.524556875228881836e-02 0.000000000000000000e+00
 8.987791061401367188e+00 6.563928723335266113e-02 0.000000000000000000e+00
 8.994118690490722656e+00 6.603299826383590698e-02 0.000000000000000000e+00
 </DataArray>
</Points>
<Cells>
 <DataArray type="Int32" Name="connectivity" format="ascii">
 0 1 16 15
 1 2 17 16
 2 3 18 17
 3 4 19 18
 4 5 20 19
 5 6 21 20
 6 7 22 21
 7 8 23 22
 8 9 24 23
 9 10 25 24
 10 11 26 25
 11 12 27 26
 12 13 28 27
 13 14 29 28
 </DataArray>
 <DataArray type="Int32" Name="offsets" format="ascii">
 4
 8
 12
 16
 20
 24
 28
 32
 36
 40
 44
 48
 52
 56
 </DataArray>
 <DataArray type="UInt8" Name="types" format="ascii">
 9
 9
 9
 9
 9
 9
 9
 9
 9
 9
 9
 9
 9
 9
 </DataArray>
</Cells>
<CellData>
 <DataArray Name="pos.x" type="Float32" NumberOfComponents="1" format="ascii">
 8.908696347897269163e+00
 8.915024183008766201e+00
 8.921352018404475004e+00
 8.927679854076691512e+00
 8.934007690016867897e+00
 8.940335526232004781e+00
 8.946663362698553001e+00
 8.952991199430094582e+00
 8.959319036409954862e+00
 8.965646873634295133e+00
 8.971974711103975153e+00
 8.978302548812450823e+00
 8.984630386753130082e+00
 8.990958224922890096e+00
 </DataArray>
 <DataArray Name="pos.y" type="Float32" NumberOfComponents="1" format="ascii">
 3.035903494523598672e-02
 3.055589140276612423e-02
 3.075274786907929506e-02
 3.094960434399878293e-02
 3.114646082735255880e-02
 3.134331731900820428e-02
 3.154017381877532999e-02
 3.173703032653778233e-02
 3.193388684212170731e-02
 3.213074336538318532e-02
 3.232759989619966162e-02
 3.252445643443318407e-02
 3.272131297992462995e-02
 3.291816953256949951e-02
 </DataArray>
 <DataArray Name="pos.z" type="Float32" NumberOfComponents="1" format="ascii">
 0.000000000000000000e+00
 0.000000000000000000e+00
 0.000000000000000000e+00
 0.000000000000000000e+00
 0.000000000000000000e+00
 0.000000000000000000e+00
 0.000000000000000000e+00
 0.000000000000000000e+00
 0.000000000000000000e+00
 0.000000000000000000e+00
 0.000000000000000000e+00
 0.000000000000000000e+00
 0.000000000000000000e+00
 0.000000000000000000e+00
 </DataArray>
 <DataArray Name="volume" type="Float32" NumberOfComponents="1" format="ascii">
 1.166436400649607306e-05
 1.181612496148206980e-05
 1.196886680353758539e-05
 1.212258953266915722e-05
 1.227729314888713433e-05
 1.243297765217097111e-05
 1.258964304253440641e-05
 1.274728931997399114e-05
 1.290591648448972697e-05
 1.306552453608161391e-05
 1.322611347475337212e-05
 1.338768330049385127e-05
 1.355023401331419323e-05
 1.371376561321068630e-05
 </DataArray>
 <DataArray Name="rho" type="Float32" NumberOfComponents="1" format="ascii">
 3.340545084769179409e-03
 3.355820676402750027e-03
 3.382102287754769343e-03
 3.418599998647904419e-03
 3.464244785020102312e-03
 3.517757856662968689e-03
 3.577747599215453777e-03
 3.642820383765189938e-03
 3.711686169866770454e-03
 3.783235981822192801e-03
 3.856566804598551054e-03
 3.930929428451960216e-03
 4.005573164752565009e-03
 4.079454312502291125e-03
 </DataArray>
 <DataArray Name="vel.x" type="Float32" NumberOfComponents="1" format="ascii">
 8.825277140387495820e+03
 8.769548617436672430e+03
 8.705714143630806575e+03
 8.634619283124211506e+03
 8.557436081396874215e+03
 8.475569117634116992e+03
 8.390534711075886662e+03
 8.303830352904549727e+03
 8.216810596316387091e+03
 8.130580741652331199e+03
 8.045911213009680068e+03
 7.963164804992753488e+03
 7.882217832875803651e+03
 7.802345641029700346e+03
 </DataArray>
 <DataArray Name="vel.y" type="Float32" NumberOfComponents="1" format="ascii">
 5.148981930027885028e+02
 5.156585863533700831e+02
 5.158377787750947618e+02
 5.154238125896171141e+02
 5.144138256700257443e+02
 5.128122805515624805e+02
 5.106265744726278513e+02
 5.078598841167400906e+02
 5.045013411343382472e+02
 5.005138078483064987e+02
 4.958196162531224900e+02
 4.902846823438098909e+02
 4.837014840152889974e+02
 4.757715676364508113e+02
 </DataArray>
 <DataArray Name="vel.z" type="Float32" NumberOfComponents="1" format="ascii">
 0.000000000000000000e+00
 0.000000000000000000e+00
 0.000000000000000000e+00
 0.000000000000000000e+00
 0.000000000000000000e+00
 0.000000000000000000e+00
 0.000000000000000000e+00
 0.000000000000000000e+00
 0.000000000000000000e+00
 0.000000000000000000e+00
 0.000000000000000000e+00
 0.000000000000000000e+00
 0.000000000000000000e+00
 0.000000000000000000e+00
 </DataArray>
 <DataArray Name="p" type="Float32" NumberOfComponents="1" format="ascii">
 2.057155022595708579e+04
 2.087551752780131210e+04
 2.125617248433399800e+04
 2.170867600742208015e+04
 2.222532924219901543e+04
 2.279590647854466442e+04
 2.340824492724518495e+04
 2.404900442043316070e+04
 2.470445745048029858e+04
 2.536112863046508210e+04
 2.600608317734784214e+04
 2.662666320417281895e+04
 2.720946464960760204e+04
 2.773830547263303379e+04
 </DataArray>
 <DataArray Name="a" type="Float32" NumberOfComponents="1" format="ascii">
 2.698205985148043055e+03
 2.711873150972791336e+03
 2.725832382469707682e+03
 2.739948357380591460e+03
 2.754035565865535318e+03
 2.767866080386535941e+03
 2.781179868069048098e+03
 2.793695498871260043e+03
 2.805119292953148488e+03
 2.815151569742974971e+03
 2.823489469834077227e+03
 2.829826458279810140e+03
 2.833848645681384824e+03
 2.835227116170371119e+03
 </DataArray>
 <DataArray Name="mu" type="Float32" NumberOfComponents="1" format="ascii">
 1.847444588311345095e-05
 1.847444588311345095e-05
 1.847444588311345095e-05
 1.847444588311345095e-05
 1.847444588311345095e-05
 1.847444588311345095e-05
 1.847444588311345095e-05
 1.847444588311345095e-05
 1.847444588311345095e-05
 1.847444588311345095e-05
 1.847444588311345095e-05
 1.847444588311345095e-05
 1.847444588311345095e-05
 1.847444588311345095e-05
 </DataArray>
 <DataArray Name="k" type="Float32" NumberOfComponents="1" format="ascii">
 2.625219405453244753e-02
 2.625219405453244753e-02
 2.625219405453244753e-02
 2.625219405453244753e-02
 2.625219405453244753e-02
 2.625219405453244753e-02
 2.625219405453244753e-02
 2.625219405453244753e-02
 2.625219405453244753e-02
 2.625219405453244753e-02
 2.625219405453244753e-02
 2.625219405453244753e-02
 2.625219405453244753e-02
 2.625219405453244753e-02
 </DataArray>
 <DataArray Name="mu_t" type="Float32" NumberOfComponents="1" format="ascii">
 0.000000000000000000e+00
 0.000000000000000000e+00
 0.000000000000000000e+00
 0.000000000000000000e+00
 0.000000000000000000e+00
 0.000000000000000000e+00
 0.000000000000000000e+00
 0.000000000000000000e+00
 0.000000000000000000e+00
 0.000000000000000000e+00
 0.000000000000000000e+00
 0.000000000000000000e+00
 0.000000000000000000e+00
 0.000000000000000000e+00
 </DataArray>
 <DataArray Name="k_t" type="Float32" NumberOfComponents="1" format="ascii">
 0.000000000000000000e+00
 0.000000000000000000e+00
 0.000000000000000000e+00
 0.000000000000000000e+00
 0.000000000000000000e+00
 0.000000000000000000e+00
 0.000000000000000000e+00
 0.000000000000000000e+00
 0.000000000000000000e+00
 0.000000000000000000e+00
 0.000000000000000000e+00
 0.000000000000000000e+00
 0.000000000000000000e+00
 0.000000000000000000e+00
 </DataArray>
 <DataArray Name="S" type="Float32" NumberOfComponents="1" format="ascii">
 0.000000000000000000e+00
 0.000000000000000000e+00
 0.000000000000000000e+00
 0.000000000000000000e+00
 0.000000000000000000e+00
 0.000000000000000000e+00
 0.000000000000000000e+00
 0.000000000000000000e+00
 0.000000000000000000e+00
 0.000000000000000000e+00
 0.000000000000000000e+00
 0.000000000000000000e+00
 0.000000000000000000e+00
 0.000000000000000000e+00
 </DataArray>
 <DataArray Name="massf[0]-Ar" type="Float32" NumberOfComponents="1" format="ascii">
 0.000000000000000000e+00
 0.000000000000000000e+00
 0.000000000000000000e+00
 0.000000000000000000e+00
 0.000000000000000000e+00
 0.000000000000000000e+00
 0.000000000000000000e+00
 0.000000000000000000e+00
 0.000000000000000000e+00
 0.000000000000000000e+00
 0.000000000000000000e+00
 0.000000000000000000e+00
 0.000000000000000000e+00
 0.000000000000000000e+00
 </DataArray>
 <DataArray Name="massf[1]-He" type="Float32" NumberOfComponents="1" format="ascii">
 9.496681075859498013e-06
 8.687172158971338877e-06
 7.908739451089877228e-06
 7.162906581769051395e-06
 6.451496000721109510e-06
 5.776485029730811020e-06
 5.139840850644556562e-06
 4.543355318133074280e-06
 3.988498219644602673e-06
 3.476302082803018364e-06
 3.007284381363182717e-06
 2.581406008412216792e-06
 2.198060051550687251e-06
 1.856083136664273441e-06
 </DataArray>
 <DataArray Name="massf[2]-N" type="Float32" NumberOfComponents="1" format="ascii">
 0.000000000000000000e+00
 0.000000000000000000e+00
 0.000000000000000000e+00
 0.000000000000000000e+00
 0.000000000000000000e+00
 0.000000000000000000e+00
 0.000000000000000000e+00
 0.000000000000000000e+00
 0.000000000000000000e+00
 0.000000000000000000e+00
 0.000000000000000000e+00
 0.000000000000000000e+00
 0.000000000000000000e+00
 0.000000000000000000e+00
 </DataArray>
 <DataArray Name="massf[3]-N2" type="Float32" NumberOfComponents="1" format="ascii">
 7.778595557081806611e-01
 7.778601853984073999e-01
 7.778607909154781064e-01
 7.778613710742121601e-01
 7.778619244569862090e-01
 7.778624495257068228e-01
 7.778629447501681504e-01
 7.778634087365458027e-01
 7.778638403415408797e-01
 7.778642387619841836e-01
 7.778646035953500348e-01
 7.778649348720578782e-01
 7.778652330642056301e-01
 7.778654990767427391e-01
 </DataArray>
 <DataArray Name="massf[4]-NO" type="Float32" NumberOfComponents="1" format="ascii">
 0.000000000000000000e+00
 0.000000000000000000e+00
 0.000000000000000000e+00
 0.000000000000000000e+00
 0.000000000000000000e+00
 0.000000000000000000e+00
 0.000000000000000000e+00
 0.000000000000000000e+00
 0.000000000000000000e+00
 0.000000000000000000e+00
 0.000000000000000000e+00
 0.000000000000000000e+00
 0.000000000000000000e+00
 0.000000000000000000e+00
 </DataArray>
 <DataArray Name="massf[5]-O" type="Float32" NumberOfComponents="1" format="ascii">
 0.000000000000000000e+00
 0.000000000000000000e+00
 0.000000000000000000e+00
 0.000000000000000000e+00
 0.000000000000000000e+00
 0.000000000000000000e+00
 0.000000000000000000e+00
 0.000000000000000000e+00
 0.000000000000000000e+00
 0.000000000000000000e+00
 0.000000000000000000e+00
 0.000000000000000000e+00
 0.000000000000000000e+00
 0.000000000000000000e+00
 </DataArray>
 <DataArray Name="massf[6]-O2" type="Float32" NumberOfComponents="1" format="ascii">
 2.221309476107433400e-01
 2.221311274294337224e-01
 2.221313003450707257e-01
 2.221314660192059975e-01
 2.221316240470132264e-01
 2.221317739892636478e-01
 2.221319154089813341e-01
 2.221320479081360377e-01
 2.221321711602394777e-01
 2.221322849359330942e-01
 2.221323891202689194e-01
 2.221324837219337545e-01
 2.221325688757430916e-01
 2.221326448401205744e-01
 </DataArray>
 <DataArray Name="dt_chem" type="Float32" NumberOfComponents="1" format="ascii">
 -1.000000000000000000e+00
 -1.000000000000000000e+00
 -1.000000000000000000e+00
 -1.000000000000000000e+00
 -1.000000000000000000e+00
 -1.000000000000000000e+00
 -1.000000000000000000e+00
 -1.000000000000000000e+00
 -1.000000000000000000e+00
 -1.000000000000000000e+00
 -1.000000000000000000e+00
 -1.000000000000000000e+00
 -1.000000000000000000e+00
 -1.000000000000000000e+00
 </DataArray>
 <DataArray Name="u" type="Float32" NumberOfComponents="1" format="ascii">
 2.872033916694122925e+07
 2.906372180473742634e+07
 2.941622615598799661e+07
 2.977452309647338092e+07
 3.013393046367139369e+07
 3.048857916572362557e+07
 3.083165520022375137e+07
 3.115566653002055362e+07
 3.145268557743010297e+07
 3.171453140634264424e+07
 3.193287518058043718e+07
 3.209926909614573419e+07
 3.220510082807854563e+07
 3.224145242928412557e+07
 </DataArray>
 <DataArray Name="T" type="Float32" NumberOfComponents="1" format="ascii">
 2.133722589828974378e+04
 2.155405349777797528e+04
 2.177664009891576643e+04
 2.200288367311837646e+04
 2.222982787691571139e+04
 2.245376693305128720e+04
 2.267039844225858906e+04
 2.287499189094257963e+04
 2.306254176524736977e+04
 2.322788258456367112e+04
 2.336575549170671002e+04
 2.347082652418130237e+04
 2.353765785484271328e+04
 2.356061870301228919e+04
 </DataArray>
 <DataArray Name="vel.vector" type="Float32" NumberOfComponents="3" format="ascii">
 8.825277343750000000e+03 5.148981933593750000e+02 0.000000000000000000e+00
 8.769548828125000000e+03 5.156585693359375000e+02 0.000000000000000000e+00
 8.705713867187500000e+03 5.158377685546875000e+02 0.000000000000000000e+00
 8.634619140625000000e+03 5.154238281250000000e+02 0.000000000000000000e+00
 8.557436523437500000e+03 5.144138183593750000e+02 0.000000000000000000e+00
 8.475569335937500000e+03 5.128122558593750000e+02 0.000000000000000000e+00
 8.390535156250000000e+03 5.106265869140625000e+02 0.000000000000000000e+00
 8.303830078125000000e+03 5.078598937988281250e+02 0.000000000000000000e+00
 8.216810546875000000e+03 5.045013427734375000e+02 0.000000000000000000e+00
 8.130580566406250000e+03 5.005137939453125000e+02 0.000000000000000000e+00
 8.045911132812500000e+03 4.958196105957031250e+02 0.000000000000000000e+00
 7.963165039062500000e+03 4.902846679687500000e+02 0.000000000000000000e+00
 7.882217773437500000e+03 4.837014770507812500e+02 0.000000000000000000e+00
 7.802345703125000000e+03 4.757715759277343750e+02 0.000000000000000000e+00
 </DataArray>
</CellData>
</Piece>
</UnstructuredGrid>
</VTKFile>
