<VTKFile type="UnstructuredGrid" byte_order="BigEndian">
<UnstructuredGrid><Piece NumberOfPoints="26" NumberOfCells="12">
<Points>
 <DataArray type="Float32" NumberOfComponents="3" format="ascii">
 8.829201698303222656e+00 0.000000000000000000e+00 0.000000000000000000e+00
 8.835562705993652344e+00 0.000000000000000000e+00 0.000000000000000000e+00
 8.841922760009765625e+00 0.000000000000000000e+00 0.000000000000000000e+00
 8.848283767700195312e+00 0.000000000000000000e+00 0.000000000000000000e+00
 8.854644775390625000e+00 0.000000000000000000e+00 0.000000000000000000e+00
 8.861004829406738281e+00 0.000000000000000000e+00 0.000000000000000000e+00
 8.867365837097167969e+00 0.000000000000000000e+00 0.000000000000000000e+00
 8.873725891113281250e+00 0.000000000000000000e+00 0.000000000000000000e+00
 8.880086898803710938e+00 0.000000000000000000e+00 0.000000000000000000e+00
 8.886446952819824219e+00 0.000000000000000000e+00 0.000000000000000000e+00
 8.892807960510253906e+00 0.000000000000000000e+00 0.000000000000000000e+00
 8.899168014526367188e+00 0.000000000000000000e+00 0.000000000000000000e+00
 8.905529022216796875e+00 0.000000000000000000e+00 0.000000000000000000e+00
 8.829201698303222656e+00 5.582199990749359131e-02 0.000000000000000000e+00
 8.835562705993652344e+00 5.621358379721641541e-02 0.000000000000000000e+00
 8.841922760009765625e+00 5.660516768693923950e-02 0.000000000000000000e+00
 8.848283767700195312e+00 5.699675157666206360e-02 0.000000000000000000e+00
 8.854644775390625000e+00 5.738833174109458923e-02 0.000000000000000000e+00
 8.861004829406738281e+00 5.777991563081741333e-02 0.000000000000000000e+00
 8.867365837097167969e+00 5.817149952054023743e-02 0.000000000000000000e+00
 8.873725891113281250e+00 5.856308341026306152e-02 0.000000000000000000e+00
 8.880086898803710938e+00 5.895466729998588562e-02 0.000000000000000000e+00
 8.886446952819824219e+00 5.934625118970870972e-02 0.000000000000000000e+00
 8.892807960510253906e+00 5.973783507943153381e-02 0.000000000000000000e+00
 8.899168014526367188e+00 6.012941524386405945e-02 0.000000000000000000e+00
 8.905529022216796875e+00 6.052099913358688354e-02 0.000000000000000000e+00
 </DataArray>
</Points>
<Cells>
 <DataArray type="Int32" Name="connectivity" format="ascii">
 0 1 14 13
 1 2 15 14
 2 3 16 15
 3 4 17 16
 4 5 18 17
 5 6 19 18
 6 7 20 19
 7 8 21 20
 8 9 22 21
 9 10 23 22
 10 11 24 23
 11 12 25 24
 </DataArray>
 <DataArray type="Int32" Name="offsets" format="ascii">
 4
 8
 12
 16
 20
 24
 28
 32
 36
 40
 44
 48
 </DataArray>
 <DataArray type="UInt8" Name="types" format="ascii">
 9
 9
 9
 9
 9
 9
 9
 9
 9
 9
 9
 9
 </DataArray>
</Cells>
<CellData>
 <DataArray Name="pos.x" type="Float32" NumberOfComponents="1" format="ascii">
 8.832385996886081614e+00
 8.838746554498065677e+00
 8.845107112463624688e+00
 8.851467670779541663e+00
 8.857828229436785605e+00
 8.864188788419633980e+00
 8.870549347736657708e+00
 8.876909907371675956e+00
 8.883270467323363562e+00
 8.889631027574527167e+00
 8.895991588136640260e+00
 8.902352148987180414e+00
 </DataArray>
 <DataArray Name="pos.y" type="Float32" NumberOfComponents="1" format="ascii">
 2.800900988750786372e-02
 2.820480076242776191e-02
 2.840059164826322716e-02
 2.859638254480327893e-02
 2.879217345181022542e-02
 2.898796436906958887e-02
 2.918375529640118357e-02
 2.937954623357951975e-02
 2.957533718042414106e-02
 2.977112813671156655e-02
 2.996691910231588651e-02
 3.016271007699542275e-02
 </DataArray>
 <DataArray Name="pos.z" type="Float32" NumberOfComponents="1" format="ascii">
 0.000000000000000000e+00
 0.000000000000000000e+00
 0.000000000000000000e+00
 0.000000000000000000e+00
 0.000000000000000000e+00
 0.000000000000000000e+00
 0.000000000000000000e+00
 0.000000000000000000e+00
 0.000000000000000000e+00
 0.000000000000000000e+00
 0.000000000000000000e+00
 0.000000000000000000e+00
 </DataArray>
 <DataArray Name="volume" type="Float32" NumberOfComponents="1" format="ascii">
 9.979773572729496109e-06
 1.011978465612056276e-05
 1.026077105550545993e-05
 1.040273277088430284e-05
 1.054566980224838567e-05
 1.068958214960641762e-05
 1.083446981295852235e-05
 1.098033279229562136e-05
 1.112717108762989838e-05
 1.127498469894900874e-05
 1.142377362626226982e-05
 1.157353786956980866e-05
 </DataArray>
 <DataArray Name="rho" type="Float32" NumberOfComponents="1" format="ascii">
 1.528855304762397147e-04
 1.528855304762397147e-04
 1.528855304762397147e-04
 1.528855304762397147e-04
 1.528855304762397147e-04
 1.528855304762397147e-04
 1.528855304762397147e-04
 1.528855304762397147e-04
 1.528855304762397147e-04
 1.528855304762397147e-04
 1.528855304762397147e-04
 1.528855304762397147e-04
 </DataArray>
 <DataArray Name="vel.x" type="Float32" NumberOfComponents="1" format="ascii">
 -1.280216893446118721e-14
 5.481911842725474276e-13
 1.105911246627789413e-12
 6.819069277734226056e-13
 7.481655341204475649e-13
 1.151346216309480721e-12
 3.667321954170729652e-13
 -2.832242347423587654e-13
 -9.933681332174001838e-13
 -4.441593926585934449e-13
 -1.546074949188878247e-12
 -1.551616061404942879e-12
 </DataArray>
 <DataArray Name="vel.y" type="Float32" NumberOfComponents="1" format="ascii">
 -3.087172127579589474e-11
 4.476749990641242081e-12
 4.708605766205402451e-11
 -1.630176238064934466e-11
 -1.746503512975965024e-11
 6.108545582852070901e-11
 -2.637558987655334808e-12
 -2.588198071519799048e-12
 -6.581523244527485137e-11
 7.861584610188308824e-11
 -5.899610739411354854e-11
 1.900412623621049972e-11
 </DataArray>
 <DataArray Name="vel.z" type="Float32" NumberOfComponents="1" format="ascii">
 0.000000000000000000e+00
 0.000000000000000000e+00
 0.000000000000000000e+00
 0.000000000000000000e+00
 0.000000000000000000e+00
 0.000000000000000000e+00
 0.000000000000000000e+00
 0.000000000000000000e+00
 0.000000000000000000e+00
 0.000000000000000000e+00
 0.000000000000000000e+00
 0.000000000000000000e+00
 </DataArray>
 <DataArray Name="p" type="Float32" NumberOfComponents="1" format="ascii">
 1.319999999999999929e+01
 1.319999999999999929e+01
 1.319999999999999929e+01
 1.319999999999999929e+01
 1.319999999999999929e+01
 1.319999999999999929e+01
 1.319999999999999929e+01
 1.319999999999999929e+01
 1.319999999999999929e+01
 1.319999999999999929e+01
 1.319999999999999929e+01
 1.319999999999999929e+01
 </DataArray>
 <DataArray Name="a" type="Float32" NumberOfComponents="1" format="ascii">
 3.474749704973453390e+02
 3.474749704973453390e+02
 3.474749704973453390e+02
 3.474749704973453390e+02
 3.474749704973453390e+02
 3.474749704973453390e+02
 3.474749704973453390e+02
 3.474749704973453390e+02
 3.474749704973453390e+02
 3.474749704973453390e+02
 3.474749704973453390e+02
 3.474749704973453390e+02
 </DataArray>
 <DataArray Name="mu" type="Float32" NumberOfComponents="1" format="ascii">
 1.853126952258717352e-05
 1.853126952258717352e-05
 1.853126952258717352e-05
 1.853126952258717352e-05
 1.853126952258717352e-05
 1.853126952258717352e-05
 1.853126952258717352e-05
 1.853126952258717352e-05
 1.853126952258717352e-05
 1.853126952258717352e-05
 1.853126952258717352e-05
 1.853126952258717352e-05
 </DataArray>
 <DataArray Name="k" type="Float32" NumberOfComponents="1" format="ascii">
 2.626199291280435430e-02
 2.626199291280435430e-02
 2.626199291280435430e-02
 2.626199291280435430e-02
 2.626199291280435430e-02
 2.626199291280435430e-02
 2.626199291280435430e-02
 2.626199291280435430e-02
 2.626199291280435430e-02
 2.626199291280435430e-02
 2.626199291280435430e-02
 2.626199291280435430e-02
 </DataArray>
 <DataArray Name="mu_t" type="Float32" NumberOfComponents="1" format="ascii">
 0.000000000000000000e+00
 0.000000000000000000e+00
 0.000000000000000000e+00
 0.000000000000000000e+00
 0.000000000000000000e+00
 0.000000000000000000e+00
 0.000000000000000000e+00
 0.000000000000000000e+00
 0.000000000000000000e+00
 0.000000000000000000e+00
 0.000000000000000000e+00
 0.000000000000000000e+00
 </DataArray>
 <DataArray Name="k_t" type="Float32" NumberOfComponents="1" format="ascii">
 0.000000000000000000e+00
 0.000000000000000000e+00
 0.000000000000000000e+00
 0.000000000000000000e+00
 0.000000000000000000e+00
 0.000000000000000000e+00
 0.000000000000000000e+00
 0.000000000000000000e+00
 0.000000000000000000e+00
 0.000000000000000000e+00
 0.000000000000000000e+00
 0.000000000000000000e+00
 </DataArray>
 <DataArray Name="S" type="Float32" NumberOfComponents="1" format="ascii">
 0.000000000000000000e+00
 0.000000000000000000e+00
 0.000000000000000000e+00
 0.000000000000000000e+00
 0.000000000000000000e+00
 0.000000000000000000e+00
 0.000000000000000000e+00
 0.000000000000000000e+00
 0.000000000000000000e+00
 0.000000000000000000e+00
 0.000000000000000000e+00
 0.000000000000000000e+00
 </DataArray>
 <DataArray Name="massf[0]-Ar" type="Float32" NumberOfComponents="1" format="ascii">
 0.000000000000000000e+00
 0.000000000000000000e+00
 0.000000000000000000e+00
 0.000000000000000000e+00
 0.000000000000000000e+00
 0.000000000000000000e+00
 0.000000000000000000e+00
 0.000000000000000000e+00
 0.000000000000000000e+00
 0.000000000000000000e+00
 0.000000000000000000e+00
 0.000000000000000000e+00
 </DataArray>
 <DataArray Name="massf[1]-He" type="Float32" NumberOfComponents="1" format="ascii">
 0.000000000000000000e+00
 0.000000000000000000e+00
 0.000000000000000000e+00
 0.000000000000000000e+00
 0.000000000000000000e+00
 0.000000000000000000e+00
 0.000000000000000000e+00
 0.000000000000000000e+00
 0.000000000000000000e+00
 0.000000000000000000e+00
 0.000000000000000000e+00
 0.000000000000000000e+00
 </DataArray>
 <DataArray Name="massf[2]-N" type="Float32" NumberOfComponents="1" format="ascii">
 0.000000000000000000e+00
 0.000000000000000000e+00
 0.000000000000000000e+00
 0.000000000000000000e+00
 0.000000000000000000e+00
 0.000000000000000000e+00
 0.000000000000000000e+00
 0.000000000000000000e+00
 0.000000000000000000e+00
 0.000000000000000000e+00
 0.000000000000000000e+00
 0.000000000000000000e+00
 </DataArray>
 <DataArray Name="massf[3]-N2" type="Float32" NumberOfComponents="1" format="ascii">
 7.563277885211407980e-01
 7.563277885211407980e-01
 7.563277885211407980e-01
 7.563277885211407980e-01
 7.563277885211407980e-01
 7.563277885211407980e-01
 7.563277885211407980e-01
 7.563277885211407980e-01
 7.563277885211407980e-01
 7.563277885211407980e-01
 7.563277885211407980e-01
 7.563277885211407980e-01
 </DataArray>
 <DataArray Name="massf[4]-NO" type="Float32" NumberOfComponents="1" format="ascii">
 0.000000000000000000e+00
 0.000000000000000000e+00
 0.000000000000000000e+00
 0.000000000000000000e+00
 0.000000000000000000e+00
 0.000000000000000000e+00
 0.000000000000000000e+00
 0.000000000000000000e+00
 0.000000000000000000e+00
 0.000000000000000000e+00
 0.000000000000000000e+00
 0.000000000000000000e+00
 </DataArray>
 <DataArray Name="massf[5]-O" type="Float32" NumberOfComponents="1" format="ascii">
 0.000000000000000000e+00
 0.000000000000000000e+00
 0.000000000000000000e+00
 0.000000000000000000e+00
 0.000000000000000000e+00
 0.000000000000000000e+00
 0.000000000000000000e+00
 0.000000000000000000e+00
 0.000000000000000000e+00
 0.000000000000000000e+00
 0.000000000000000000e+00
 0.000000000000000000e+00
 </DataArray>
 <DataArray Name="massf[6]-O2" type="Float32" NumberOfComponents="1" format="ascii">
 2.436722114788592020e-01
 2.436722114788592020e-01
 2.436722114788592020e-01
 2.436722114788592020e-01
 2.436722114788592020e-01
 2.436722114788592020e-01
 2.436722114788592020e-01
 2.436722114788592020e-01
 2.436722114788592020e-01
 2.436722114788592020e-01
 2.436722114788592020e-01
 2.436722114788592020e-01
 </DataArray>
 <DataArray Name="dt_chem" type="Float32" NumberOfComponents="1" format="ascii">
 -1.000000000000000000e+00
 -1.000000000000000000e+00
 -1.000000000000000000e+00
 -1.000000000000000000e+00
 -1.000000000000000000e+00
 -1.000000000000000000e+00
 -1.000000000000000000e+00
 -1.000000000000000000e+00
 -1.000000000000000000e+00
 -1.000000000000000000e+00
 -1.000000000000000000e+00
 -1.000000000000000000e+00
 </DataArray>
 <DataArray Name="u" type="Float32" NumberOfComponents="1" format="ascii">
 -8.447044764501467580e+04
 -8.447044764501467580e+04
 -8.447044764501467580e+04
 -8.447044764501467580e+04
 -8.447044764501467580e+04
 -8.447044764501467580e+04
 -8.447044764501467580e+04
 -8.447044764501467580e+04
 -8.447044764501467580e+04
 -8.447044764501467580e+04
 -8.447044764501467580e+04
 -8.447044764501467580e+04
 </DataArray>
 <DataArray Name="T" type="Float32" NumberOfComponents="1" format="ascii">
 3.000000000000000000e+02
 3.000000000000000000e+02
 3.000000000000000000e+02
 3.000000000000000000e+02
 3.000000000000000000e+02
 3.000000000000000000e+02
 3.000000000000000000e+02
 3.000000000000000000e+02
 3.000000000000000000e+02
 3.000000000000000000e+02
 3.000000000000000000e+02
 3.000000000000000000e+02
 </DataArray>
 <DataArray Name="vel.vector" type="Float32" NumberOfComponents="3" format="ascii">
 -1.280216862018348015e-14 -3.087172184557118726e-11 0.000000000000000000e+00
 5.481911582658205440e-13 4.476750133791673747e-12 0.000000000000000000e+00
 1.105911261005398938e-12 4.708605727543613284e-11 0.000000000000000000e+00
 6.819069506107389156e-13 -1.630176202360722471e-11 0.000000000000000000e+00
 7.481655269273024267e-13 -1.746503462685122798e-11 0.000000000000000000e+00
 1.151346162506228232e-12 6.108545613781046768e-11 0.000000000000000000e+00
 3.667321979948512389e-13 -2.637559008006329364e-12 0.000000000000000000e+00
 -2.832242361645864737e-13 -2.588198102018712810e-12 0.000000000000000000e+00
 -9.933681481555378667e-13 -6.581523520621246348e-11 0.000000000000000000e+00
 -4.441593848356767404e-13 7.861584300217216992e-11 0.000000000000000000e+00
 -1.546074900049543288e-12 -5.899610661108667387e-11 0.000000000000000000e+00
 -1.551616040512682204e-12 1.900412639754822663e-11 0.000000000000000000e+00
 </DataArray>
</CellData>
</Piece>
</UnstructuredGrid>
</VTKFile>
