<VTKFile type="UnstructuredGrid" byte_order="BigEndian">
<UnstructuredGrid><Piece NumberOfPoints="42" NumberOfCells="20">
<Points>
 <DataArray type="Float32" NumberOfComponents="3" format="ascii">
 9.210471153259277344e+00 0.000000000000000000e+00 0.000000000000000000e+00
 9.216885566711425781e+00 0.000000000000000000e+00 0.000000000000000000e+00
 9.223299980163574219e+00 0.000000000000000000e+00 0.000000000000000000e+00
 9.229714393615722656e+00 0.000000000000000000e+00 0.000000000000000000e+00
 9.236129760742187500e+00 0.000000000000000000e+00 0.000000000000000000e+00
 9.242544174194335938e+00 0.000000000000000000e+00 0.000000000000000000e+00
 9.248958587646484375e+00 0.000000000000000000e+00 0.000000000000000000e+00
 9.255373001098632812e+00 0.000000000000000000e+00 0.000000000000000000e+00
 9.261787414550781250e+00 0.000000000000000000e+00 0.000000000000000000e+00
 9.268202781677246094e+00 0.000000000000000000e+00 0.000000000000000000e+00
 9.274617195129394531e+00 0.000000000000000000e+00 0.000000000000000000e+00
 9.281031608581542969e+00 0.000000000000000000e+00 0.000000000000000000e+00
 9.287446022033691406e+00 0.000000000000000000e+00 0.000000000000000000e+00
 9.293860435485839844e+00 0.000000000000000000e+00 0.000000000000000000e+00
 9.300275802612304688e+00 0.000000000000000000e+00 0.000000000000000000e+00
 9.306690216064453125e+00 0.000000000000000000e+00 0.000000000000000000e+00
 9.313104629516601562e+00 0.000000000000000000e+00 0.000000000000000000e+00
 9.319519042968750000e+00 0.000000000000000000e+00 0.000000000000000000e+00
 9.325933456420898438e+00 0.000000000000000000e+00 0.000000000000000000e+00
 9.332348823547363281e+00 0.000000000000000000e+00 0.000000000000000000e+00
 9.338763236999511719e+00 0.000000000000000000e+00 0.000000000000000000e+00
 9.210471153259277344e+00 7.897099852561950684e-02 0.000000000000000000e+00
 9.216885566711425781e+00 7.930769771337509155e-02 0.000000000000000000e+00
 9.223299980163574219e+00 7.964439690113067627e-02 0.000000000000000000e+00
 9.229714393615722656e+00 7.998110353946685791e-02 0.000000000000000000e+00
 9.236129760742187500e+00 8.031780272722244263e-02 0.000000000000000000e+00
 9.242544174194335938e+00 8.065450191497802734e-02 0.000000000000000000e+00
 9.248958587646484375e+00 8.099120110273361206e-02 0.000000000000000000e+00
 9.255373001098632812e+00 8.132790029048919678e-02 0.000000000000000000e+00
 9.261787414550781250e+00 8.166459947824478149e-02 0.000000000000000000e+00
 9.268202781677246094e+00 8.200129866600036621e-02 0.000000000000000000e+00
 9.274617195129394531e+00 8.233799785375595093e-02 0.000000000000000000e+00
 9.281031608581542969e+00 8.267469704151153564e-02 0.000000000000000000e+00
 9.287446022033691406e+00 8.301140367984771729e-02 0.000000000000000000e+00
 9.293860435485839844e+00 8.334810286760330200e-02 0.000000000000000000e+00
 9.300275802612304688e+00 8.368480205535888672e-02 0.000000000000000000e+00
 9.306690216064453125e+00 8.402150124311447144e-02 0.000000000000000000e+00
 9.313104629516601562e+00 8.435820043087005615e-02 0.000000000000000000e+00
 9.319519042968750000e+00 8.469489961862564087e-02 0.000000000000000000e+00
 9.325933456420898438e+00 8.503159880638122559e-02 0.000000000000000000e+00
 9.332348823547363281e+00 8.536829799413681030e-02 0.000000000000000000e+00
 9.338763236999511719e+00 8.570499718189239502e-02 0.000000000000000000e+00
 </DataArray>
</Points>
<Cells>
 <DataArray type="Int32" Name="connectivity" format="ascii">
 0 1 22 21
 1 2 23 22
 2 3 24 23
 3 4 25 24
 4 5 26 25
 5 6 27 26
 6 7 28 27
 7 8 29 28
 8 9 30 29
 9 10 31 30
 10 11 32 31
 11 12 33 32
 12 13 34 33
 13 14 35 34
 14 15 36 35
 15 16 37 36
 16 17 38 37
 17 18 39 38
 18 19 40 39
 19 20 41 40
 </DataArray>
 <DataArray type="Int32" Name="offsets" format="ascii">
 4
 8
 12
 16
 20
 24
 28
 32
 36
 40
 44
 48
 52
 56
 60
 64
 68
 72
 76
 80
 </DataArray>
 <DataArray type="UInt8" Name="types" format="ascii">
 9
 9
 9
 9
 9
 9
 9
 9
 9
 9
 9
 9
 9
 9
 9
 9
 9
 9
 9
 9
 </DataArray>
</Cells>
<CellData>
 <DataArray Name="pos.x" type="Float32" NumberOfComponents="1" format="ascii">
 9.213680574255157296e+00
 9.220095164618202332e+00
 9.226509755068965646e+00
 9.232924345590305393e+00
 9.239338936199290586e+00
 9.245753526882877438e+00
 9.252168117643849499e+00
 9.258582708480647128e+00
 9.264997299396849684e+00
 9.271411890381134668e+00
 9.277826481444675366e+00
 9.284241072579485277e+00
 9.290655663783676133e+00
 9.297070255059932009e+00
 9.303484846407704012e+00
 9.309899437821183454e+00
 9.316314029307765310e+00
 9.322728620860885940e+00
 9.329143212479753089e+00
 9.335557804160885098e+00
 </DataArray>
 <DataArray Name="pos.y" type="Float32" NumberOfComponents="1" format="ascii">
 3.956973468738463062e-02
 3.973808443451085082e-02
 3.990643418379017510e-02
 4.007478393515015447e-02
 4.024313368861873186e-02
 4.041148344411918392e-02
 4.057983320166197450e-02
 4.074818296119439576e-02
 4.091653272272540581e-02
 4.108488248619353300e-02
 4.125323225159490542e-02
 4.142158201891499997e-02
 4.158993178810717339e-02
 4.175828155916327944e-02
 4.192663133205217635e-02
 4.209498110676925670e-02
 4.226333088327512144e-02
 4.243168066155746099e-02
 4.260003044159536151e-02
 4.276838022335004846e-02
 </DataArray>
 <DataArray Name="pos.z" type="Float32" NumberOfComponents="1" format="ascii">
 0.000000000000000000e+00
 0.000000000000000000e+00
 0.000000000000000000e+00
 0.000000000000000000e+00
 0.000000000000000000e+00
 0.000000000000000000e+00
 0.000000000000000000e+00
 0.000000000000000000e+00
 0.000000000000000000e+00
 0.000000000000000000e+00
 0.000000000000000000e+00
 0.000000000000000000e+00
 0.000000000000000000e+00
 0.000000000000000000e+00
 0.000000000000000000e+00
 0.000000000000000000e+00
 0.000000000000000000e+00
 0.000000000000000000e+00
 0.000000000000000000e+00
 0.000000000000000000e+00
 </DataArray>
 <DataArray Name="volume" type="Float32" NumberOfComponents="1" format="ascii">
 2.008746796713563613e-05
 2.025875640608386765e-05
 2.043077204829025738e-05
 2.060351489374925220e-05
 2.077698494246658481e-05
 2.095118219442500284e-05
 2.112610664964762692e-05
 2.130175830811113991e-05
 2.147813716983308218e-05
 2.165524323480762952e-05
 2.183307650304081620e-05
 2.201163697451451572e-05
 2.219092464925298709e-05
 2.237093952723176463e-05
 2.255168160846928653e-05
 2.273315089296569849e-05
 2.291534738070210152e-05
 2.309827107169740816e-05
 2.328192196595175054e-05
 2.346630006344579261e-05
 </DataArray>
 <DataArray Name="rho" type="Float32" NumberOfComponents="1" format="ascii">
 2.140830177882556591e-03
 2.114438259007975825e-03
 2.088273560388730944e-03
 2.062325894431141834e-03
 2.036585490199625727e-03
 2.011042986432076424e-03
 1.985689424210176652e-03
 1.960516239276041510e-03
 1.935515253965562838e-03
 1.910678668834682806e-03
 1.885999053804428977e-03
 1.861469338925229823e-03
 1.837082804710107658e-03
 1.812833071955750408e-03
 1.788714091732435075e-03
 1.764720134088772641e-03
 1.740845778670413718e-03
 1.717085910164624796e-03
 1.693435698715499817e-03
 1.669890591102332709e-03
 </DataArray>
 <DataArray Name="vel.x" type="Float32" NumberOfComponents="1" format="ascii">
 1.111344709978151695e+04
 1.111687513224297072e+04
 1.112030477443529344e+04
 1.112373916326461949e+04
 1.112718139099851578e+04
 1.113063450962273419e+04
 1.113410153654447640e+04
 1.113758546175698939e+04
 1.114108925662455113e+04
 1.114461588428791947e+04
 1.114816831202203139e+04
 1.115174952549730551e+04
 1.115536254518749229e+04
 1.115901044540328439e+04
 1.116269637407104346e+04
 1.116642358040586078e+04
 1.117019545359017138e+04
 1.117401554827216205e+04
 1.117788754790273197e+04
 1.118181536512383536e+04
 </DataArray>
 <DataArray Name="vel.y" type="Float32" NumberOfComponents="1" format="ascii">
 6.203075966240430716e+02
 6.197642675514666735e+02
 6.192385610688901352e+02
 6.187299993426943274e+02
 6.182381245288000855e+02
 6.177624975064442197e+02
 6.173026968205865614e+02
 6.168583177403722857e+02
 6.164289714571243621e+02
 6.160142844111028353e+02
 6.156138977477197614e+02
 6.152274669043073345e+02
 6.148546613340928388e+02
 6.144951643782274004e+02
 6.141486732884802677e+02
 6.138148994322741601e+02
 6.134935686813307711e+02
 6.131844218601331704e+02
 6.128872153026487695e+02
 6.126017218352741338e+02
 </DataArray>
 <DataArray Name="vel.z" type="Float32" NumberOfComponents="1" format="ascii">
 0.000000000000000000e+00
 0.000000000000000000e+00
 0.000000000000000000e+00
 0.000000000000000000e+00
 0.000000000000000000e+00
 0.000000000000000000e+00
 0.000000000000000000e+00
 0.000000000000000000e+00
 0.000000000000000000e+00
 0.000000000000000000e+00
 0.000000000000000000e+00
 0.000000000000000000e+00
 0.000000000000000000e+00
 0.000000000000000000e+00
 0.000000000000000000e+00
 0.000000000000000000e+00
 0.000000000000000000e+00
 0.000000000000000000e+00
 0.000000000000000000e+00
 0.000000000000000000e+00
 </DataArray>
 <DataArray Name="p" type="Float32" NumberOfComponents="1" format="ascii">
 3.895147111652683634e+03
 3.852667254637109636e+03
 3.810898213861804379e+03
 3.769820691191532660e+03
 3.729416275888630025e+03
 3.689667404266675931e+03
 3.650557317501511534e+03
 3.612070017546039708e+03
 3.574190221012411257e+03
 3.536903311127698544e+03
 3.500195287298569838e+03
 3.464052712434192472e+03
 3.428462657832942114e+03
 3.393412645373101441e+03
 3.358890588470029797e+03
 3.324884784312539978e+03
 3.291384828870173351e+03
 3.258378315955163544e+03
 3.225854037283756952e+03
 3.193800823816807224e+03
 </DataArray>
 <DataArray Name="a" type="Float32" NumberOfComponents="1" format="ascii">
 1.517379875868984755e+03
 1.518425545975915156e+03
 1.519554390978739320e+03
 1.520768875401993228e+03
 1.522071569450189145e+03
 1.523465150041930201e+03
 1.524952401537169408e+03
 1.526536216136980556e+03
 1.528219593925271056e+03
 1.530005642530297791e+03
 1.531897576359963978e+03
 1.533898715385215155e+03
 1.536012483430637985e+03
 1.538242405927502659e+03
 1.540592107147540673e+03
 1.543065328705778711e+03
 1.545666113357272934e+03
 1.548397659165726509e+03
 1.551263790886756851e+03
 1.554268373625909362e+03
 </DataArray>
 <DataArray Name="mu" type="Float32" NumberOfComponents="1" format="ascii">
 1.853126952258717352e-05
 1.853126952258717352e-05
 1.853126952258717352e-05
 1.853126952258717352e-05
 1.853126952258717352e-05
 1.853126952258717352e-05
 1.853126952258717352e-05
 1.853126952258717352e-05
 1.853126952258717352e-05
 1.853126952258717352e-05
 1.853126952258717352e-05
 1.853126952258717352e-05
 1.853126952258717352e-05
 1.853126952258717352e-05
 1.853126952258717352e-05
 1.853126952258717352e-05
 1.853126952258717352e-05
 1.853126952258717352e-05
 1.853126952258717352e-05
 1.853126952258717352e-05
 </DataArray>
 <DataArray Name="k" type="Float32" NumberOfComponents="1" format="ascii">
 2.626199291280435430e-02
 2.626199291280435430e-02
 2.626199291280435430e-02
 2.626199291280435430e-02
 2.626199291280435430e-02
 2.626199291280435430e-02
 2.626199291280435430e-02
 2.626199291280435430e-02
 2.626199291280435430e-02
 2.626199291280435430e-02
 2.626199291280435430e-02
 2.626199291280435430e-02
 2.626199291280435430e-02
 2.626199291280435430e-02
 2.626199291280435430e-02
 2.626199291280435430e-02
 2.626199291280435430e-02
 2.626199291280435430e-02
 2.626199291280435430e-02
 2.626199291280435430e-02
 </DataArray>
 <DataArray Name="mu_t" type="Float32" NumberOfComponents="1" format="ascii">
 0.000000000000000000e+00
 0.000000000000000000e+00
 0.000000000000000000e+00
 0.000000000000000000e+00
 0.000000000000000000e+00
 0.000000000000000000e+00
 0.000000000000000000e+00
 0.000000000000000000e+00
 0.000000000000000000e+00
 0.000000000000000000e+00
 0.000000000000000000e+00
 0.000000000000000000e+00
 0.000000000000000000e+00
 0.000000000000000000e+00
 0.000000000000000000e+00
 0.000000000000000000e+00
 0.000000000000000000e+00
 0.000000000000000000e+00
 0.000000000000000000e+00
 0.000000000000000000e+00
 </DataArray>
 <DataArray Name="k_t" type="Float32" NumberOfComponents="1" format="ascii">
 0.000000000000000000e+00
 0.000000000000000000e+00
 0.000000000000000000e+00
 0.000000000000000000e+00
 0.000000000000000000e+00
 0.000000000000000000e+00
 0.000000000000000000e+00
 0.000000000000000000e+00
 0.000000000000000000e+00
 0.000000000000000000e+00
 0.000000000000000000e+00
 0.000000000000000000e+00
 0.000000000000000000e+00
 0.000000000000000000e+00
 0.000000000000000000e+00
 0.000000000000000000e+00
 0.000000000000000000e+00
 0.000000000000000000e+00
 0.000000000000000000e+00
 0.000000000000000000e+00
 </DataArray>
 <DataArray Name="S" type="Float32" NumberOfComponents="1" format="ascii">
 0.000000000000000000e+00
 0.000000000000000000e+00
 0.000000000000000000e+00
 0.000000000000000000e+00
 0.000000000000000000e+00
 0.000000000000000000e+00
 0.000000000000000000e+00
 0.000000000000000000e+00
 0.000000000000000000e+00
 0.000000000000000000e+00
 0.000000000000000000e+00
 0.000000000000000000e+00
 0.000000000000000000e+00
 0.000000000000000000e+00
 0.000000000000000000e+00
 0.000000000000000000e+00
 0.000000000000000000e+00
 0.000000000000000000e+00
 0.000000000000000000e+00
 0.000000000000000000e+00
 </DataArray>
 <DataArray Name="massf[0]-Ar" type="Float32" NumberOfComponents="1" format="ascii">
 0.000000000000000000e+00
 0.000000000000000000e+00
 0.000000000000000000e+00
 0.000000000000000000e+00
 0.000000000000000000e+00
 0.000000000000000000e+00
 0.000000000000000000e+00
 0.000000000000000000e+00
 0.000000000000000000e+00
 0.000000000000000000e+00
 0.000000000000000000e+00
 0.000000000000000000e+00
 0.000000000000000000e+00
 0.000000000000000000e+00
 0.000000000000000000e+00
 0.000000000000000000e+00
 0.000000000000000000e+00
 0.000000000000000000e+00
 0.000000000000000000e+00
 0.000000000000000000e+00
 </DataArray>
 <DataArray Name="massf[1]-He" type="Float32" NumberOfComponents="1" format="ascii">
 1.340627191561273406e-03
 1.325351085511679771e-03
 1.310212965059433677e-03
 1.295212243962068225e-03
 1.280348336148460792e-03
 1.265620652463101412e-03
 1.251028597504524539e-03
 1.236571566595920466e-03
 1.222248942903305779e-03
 1.208060094721909736e-03
 1.194004372954239352e-03
 1.180081108797217037e-03
 1.166289611657968456e-03
 1.152629167315462333e-03
 1.139099036337852837e-03
 1.125698452775987773e-03
 1.112426623126621392e-03
 1.099282725616676590e-03
 1.086265909695344981e-03
 1.073375295831486588e-03
 </DataArray>
 <DataArray Name="massf[2]-N" type="Float32" NumberOfComponents="1" format="ascii">
 0.000000000000000000e+00
 0.000000000000000000e+00
 0.000000000000000000e+00
 0.000000000000000000e+00
 0.000000000000000000e+00
 0.000000000000000000e+00
 0.000000000000000000e+00
 0.000000000000000000e+00
 0.000000000000000000e+00
 0.000000000000000000e+00
 0.000000000000000000e+00
 0.000000000000000000e+00
 0.000000000000000000e+00
 0.000000000000000000e+00
 0.000000000000000000e+00
 0.000000000000000000e+00
 0.000000000000000000e+00
 0.000000000000000000e+00
 0.000000000000000000e+00
 0.000000000000000000e+00
 </DataArray>
 <DataArray Name="massf[3]-N2" type="Float32" NumberOfComponents="1" format="ascii">
 7.553138349221112380e-01
 7.553253886656168259e-01
 7.553368380467807564e-01
 7.553481835089944640e-01
 7.553594254955198206e-01
 7.553705644519514983e-01
 7.553816008286082795e-01
 7.553925350828237795e-01
 7.554033676811269249e-01
 7.554140991012935347e-01
 7.554247298342540162e-01
 7.554352603858427440e-01
 7.554456912783743538e-01
 7.554560230520339648e-01
 7.554662562660746650e-01
 7.554763914998048335e-01
 7.554864293533729569e-01
 7.554963704483091957e-01
 7.555062154279084119e-01
 7.555159649573846004e-01
 </DataArray>
 <DataArray Name="massf[4]-NO" type="Float32" NumberOfComponents="1" format="ascii">
 0.000000000000000000e+00
 0.000000000000000000e+00
 0.000000000000000000e+00
 0.000000000000000000e+00
 0.000000000000000000e+00
 0.000000000000000000e+00
 0.000000000000000000e+00
 0.000000000000000000e+00
 0.000000000000000000e+00
 0.000000000000000000e+00
 0.000000000000000000e+00
 0.000000000000000000e+00
 0.000000000000000000e+00
 0.000000000000000000e+00
 0.000000000000000000e+00
 0.000000000000000000e+00
 0.000000000000000000e+00
 0.000000000000000000e+00
 0.000000000000000000e+00
 0.000000000000000000e+00
 </DataArray>
 <DataArray Name="massf[5]-O" type="Float32" NumberOfComponents="1" format="ascii">
 0.000000000000000000e+00
 0.000000000000000000e+00
 0.000000000000000000e+00
 0.000000000000000000e+00
 0.000000000000000000e+00
 0.000000000000000000e+00
 0.000000000000000000e+00
 0.000000000000000000e+00
 0.000000000000000000e+00
 0.000000000000000000e+00
 0.000000000000000000e+00
 0.000000000000000000e+00
 0.000000000000000000e+00
 0.000000000000000000e+00
 0.000000000000000000e+00
 0.000000000000000000e+00
 0.000000000000000000e+00
 0.000000000000000000e+00
 0.000000000000000000e+00
 0.000000000000000000e+00
 </DataArray>
 <DataArray Name="massf[6]-O2" type="Float32" NumberOfComponents="1" format="ascii">
 2.433455378863276231e-01
 2.433492602488716017e-01
 2.433529489881598729e-01
 2.433566042470435842e-01
 2.433602261683318058e-01
 2.433638148955854508e-01
 2.433673705738873261e-01
 2.433708933505803473e-01
 2.433743833759698105e-01
 2.433778408039845298e-01
 2.433812657927917622e-01
 2.433846585053600631e-01
 2.433880191099676571e-01
 2.433913477806504966e-01
 2.433946446975875644e-01
 2.433979100474192303e-01
 2.434011440235003543e-01
 2.434043468260741749e-01
 2.434075186623962661e-01
 2.434106597467838307e-01
 </DataArray>
 <DataArray Name="dt_chem" type="Float32" NumberOfComponents="1" format="ascii">
 -1.000000000000000000e+00
 -1.000000000000000000e+00
 -1.000000000000000000e+00
 -1.000000000000000000e+00
 -1.000000000000000000e+00
 -1.000000000000000000e+00
 -1.000000000000000000e+00
 -1.000000000000000000e+00
 -1.000000000000000000e+00
 -1.000000000000000000e+00
 -1.000000000000000000e+00
 -1.000000000000000000e+00
 -1.000000000000000000e+00
 -1.000000000000000000e+00
 -1.000000000000000000e+00
 -1.000000000000000000e+00
 -1.000000000000000000e+00
 -1.000000000000000000e+00
 -1.000000000000000000e+00
 -1.000000000000000000e+00
 </DataArray>
 <DataArray Name="u" type="Float32" NumberOfComponents="1" format="ascii">
 5.854705914058690891e+06
 5.865036904972517863e+06
 5.876151793595205061e+06
 5.888076408107036725e+06
 5.900837868994312361e+06
 5.914464623147141188e+06
 5.928986476580526680e+06
 5.944434625569737516e+06
 5.960841685895731673e+06
 5.978241719944857061e+06
 5.996670261148638092e+06
 6.016164335422068834e+06
 6.036762479105194099e+06
 6.058504752779740840e+06
 6.081432750950053334e+06
 6.105589605973166414e+06
 6.131019989196861163e+06
 6.157770111596189439e+06
 6.185887694765390828e+06
 6.215421951081946492e+06
 </DataArray>
 <DataArray Name="T" type="Float32" NumberOfComponents="1" format="ascii">
 6.269749057459578580e+03
 6.279367742769584765e+03
 6.289699982184003602e+03
 6.300768916595045084e+03
 6.312598806219883954e+03
 6.325215056066448597e+03
 6.338644239704479332e+03
 6.352914121151187828e+03
 6.368053674587758906e+03
 6.384093101683050008e+03
 6.401063846083219687e+03
 6.418998604787002478e+03
 6.437931335979889809e+03
 6.457897262850955485e+03
 6.478932873443708559e+03
 6.501076024225822948e+03
 6.524367873089134264e+03
 6.548846480608440288e+03
 6.574553176169823018e+03
 6.601530417919528190e+03
 </DataArray>
 <DataArray Name="vel.vector" type="Float32" NumberOfComponents="3" format="ascii">
 1.111344726562500000e+04 6.203076171875000000e+02 0.000000000000000000e+00
 1.111687500000000000e+04 6.197642822265625000e+02 0.000000000000000000e+00
 1.112030468750000000e+04 6.192385864257812500e+02 0.000000000000000000e+00
 1.112373925781250000e+04 6.187299804687500000e+02 0.000000000000000000e+00
 1.112718164062500000e+04 6.182380981445312500e+02 0.000000000000000000e+00
 1.113063476562500000e+04 6.177625122070312500e+02 0.000000000000000000e+00
 1.113410156250000000e+04 6.173026733398437500e+02 0.000000000000000000e+00
 1.113758593750000000e+04 6.168583374023437500e+02 0.000000000000000000e+00
 1.114108886718750000e+04 6.164289550781250000e+02 0.000000000000000000e+00
 1.114461621093750000e+04 6.160142822265625000e+02 0.000000000000000000e+00
 1.114816796875000000e+04 6.156138916015625000e+02 0.000000000000000000e+00
 1.115175000000000000e+04 6.152274780273437500e+02 0.000000000000000000e+00
 1.115536230468750000e+04 6.148546752929687500e+02 0.000000000000000000e+00
 1.115901074218750000e+04 6.144951782226562500e+02 0.000000000000000000e+00
 1.116269628906250000e+04 6.141486816406250000e+02 0.000000000000000000e+00
 1.116642382812500000e+04 6.138148803710937500e+02 0.000000000000000000e+00
 1.117019531250000000e+04 6.134935913085937500e+02 0.000000000000000000e+00
 1.117401562500000000e+04 6.131844482421875000e+02 0.000000000000000000e+00
 1.117788769531250000e+04 6.128872070312500000e+02 0.000000000000000000e+00
 1.118181542968750000e+04 6.126017456054687500e+02 0.000000000000000000e+00
 </DataArray>
</CellData>
</Piece>
</UnstructuredGrid>
</VTKFile>
