<VTKFile type="UnstructuredGrid" byte_order="BigEndian">
<UnstructuredGrid><Piece NumberOfPoints="14" NumberOfCells="6">
<Points>
 <DataArray type="Float32" NumberOfComponents="3" format="ascii">
 8.627993583679199219e+00 0.000000000000000000e+00 0.000000000000000000e+00
 8.634122848510742188e+00 0.000000000000000000e+00 0.000000000000000000e+00
 8.640252113342285156e+00 0.000000000000000000e+00 0.000000000000000000e+00
 8.646380424499511719e+00 0.000000000000000000e+00 0.000000000000000000e+00
 8.652509689331054688e+00 0.000000000000000000e+00 0.000000000000000000e+00
 8.658638000488281250e+00 0.000000000000000000e+00 0.000000000000000000e+00
 8.664767265319824219e+00 0.000000000000000000e+00 0.000000000000000000e+00
 8.627993583679199219e+00 4.474800080060958862e-02 0.000000000000000000e+00
 8.634122848510742188e+00 4.503633454442024231e-02 0.000000000000000000e+00
 8.640252113342285156e+00 4.532466828823089600e-02 0.000000000000000000e+00
 8.646380424499511719e+00 4.561299830675125122e-02 0.000000000000000000e+00
 8.652509689331054688e+00 4.590133205056190491e-02 0.000000000000000000e+00
 8.658638000488281250e+00 4.618966579437255859e-02 0.000000000000000000e+00
 8.664767265319824219e+00 4.647799953818321228e-02 0.000000000000000000e+00
 </DataArray>
</Points>
<Cells>
 <DataArray type="Int32" Name="connectivity" format="ascii">
 0 1 8 7
 1 2 9 8
 2 3 10 9
 3 4 11 10
 4 5 12 11
 5 6 13 12
 </DataArray>
 <DataArray type="Int32" Name="offsets" format="ascii">
 4
 8
 12
 16
 20
 24
 </DataArray>
 <DataArray type="UInt8" Name="types" format="ascii">
 9
 9
 9
 9
 9
 9
 </DataArray>
</Cells>
<CellData>
 <DataArray Name="pos.x" type="Float32" NumberOfComponents="1" format="ascii">
 8.631061697021175760e+00
 8.637190509422614682e+00
 8.643319322084677125e+00
 8.649448135009283334e+00
 8.655576948190986997e+00
 8.661705761621332655e+00
 </DataArray>
 <DataArray Name="pos.y" type="Float32" NumberOfComponents="1" format="ascii">
 2.244616049611685912e-02
 2.259032667035004022e-02
 2.273449285081960078e-02
 2.287865903742557910e-02
 2.302282523003477271e-02
 2.316699142855304511e-02
 </DataArray>
 <DataArray Name="pos.z" type="Float32" NumberOfComponents="1" format="ascii">
 0.000000000000000000e+00
 0.000000000000000000e+00
 0.000000000000000000e+00
 0.000000000000000000e+00
 0.000000000000000000e+00
 0.000000000000000000e+00
 </DataArray>
 <DataArray Name="volume" type="Float32" NumberOfComponents="1" format="ascii">
 6.175760449679191054e-06
 6.255346268518173863e-06
 6.335441614726138386e-06
 6.416046488303081235e-06
 6.497160889249008339e-06
 6.578784817563916309e-06
 </DataArray>
 <DataArray Name="rho" type="Float32" NumberOfComponents="1" format="ascii">
 4.015854542034257013e-03
 3.904473490922875153e-03
 3.795539416800576375e-03
 3.688982442366358760e-03
 3.584732550497484599e-03
 3.482720821196434984e-03
 </DataArray>
 <DataArray Name="vel.x" type="Float32" NumberOfComponents="1" format="ascii">
 1.093902282714750072e+04
 1.094576682962211089e+04
 1.095268784417961615e+04
 1.095979606868502924e+04
 1.096710337783875912e+04
 1.097462301778108849e+04
 </DataArray>
 <DataArray Name="vel.y" type="Float32" NumberOfComponents="1" format="ascii">
 1.814446768052189896e+02
 1.985427539166054487e+02
 2.149703657869996789e+02
 2.307491500357569691e+02
 2.459004203873469407e+02
 2.604451310927709642e+02
 </DataArray>
 <DataArray Name="vel.z" type="Float32" NumberOfComponents="1" format="ascii">
 0.000000000000000000e+00
 0.000000000000000000e+00
 0.000000000000000000e+00
 0.000000000000000000e+00
 0.000000000000000000e+00
 0.000000000000000000e+00
 </DataArray>
 <DataArray Name="p" type="Float32" NumberOfComponents="1" format="ascii">
 1.707144259089259867e+04
 1.681650111177464350e+04
 1.656556126427600611e+04
 1.631838604616608609e+04
 1.607473358638079662e+04
 1.583436367555158904e+04
 </DataArray>
 <DataArray Name="a" type="Float32" NumberOfComponents="1" format="ascii">
 2.227527849987812715e+03
 2.241370284043628999e+03
 2.255615063261554496e+03
 2.270278375702787343e+03
 2.285377428074480576e+03
 2.300930603491781767e+03
 </DataArray>
 <DataArray Name="mu" type="Float32" NumberOfComponents="1" format="ascii">
 1.853126952258717352e-05
 1.853126952258717352e-05
 1.853126952258717352e-05
 1.853126952258717352e-05
 1.853126952258717352e-05
 1.853126952258717352e-05
 </DataArray>
 <DataArray Name="k" type="Float32" NumberOfComponents="1" format="ascii">
 2.626199291280435430e-02
 2.626199291280435430e-02
 2.626199291280435430e-02
 2.626199291280435430e-02
 2.626199291280435430e-02
 2.626199291280435430e-02
 </DataArray>
 <DataArray Name="mu_t" type="Float32" NumberOfComponents="1" format="ascii">
 0.000000000000000000e+00
 0.000000000000000000e+00
 0.000000000000000000e+00
 0.000000000000000000e+00
 0.000000000000000000e+00
 0.000000000000000000e+00
 </DataArray>
 <DataArray Name="k_t" type="Float32" NumberOfComponents="1" format="ascii">
 0.000000000000000000e+00
 0.000000000000000000e+00
 0.000000000000000000e+00
 0.000000000000000000e+00
 0.000000000000000000e+00
 0.000000000000000000e+00
 </DataArray>
 <DataArray Name="S" type="Float32" NumberOfComponents="1" format="ascii">
 0.000000000000000000e+00
 0.000000000000000000e+00
 0.000000000000000000e+00
 0.000000000000000000e+00
 0.000000000000000000e+00
 0.000000000000000000e+00
 </DataArray>
 <DataArray Name="massf[0]-Ar" type="Float32" NumberOfComponents="1" format="ascii">
 0.000000000000000000e+00
 0.000000000000000000e+00
 0.000000000000000000e+00
 0.000000000000000000e+00
 0.000000000000000000e+00
 0.000000000000000000e+00
 </DataArray>
 <DataArray Name="massf[1]-He" type="Float32" NumberOfComponents="1" format="ascii">
 5.379234387550462307e-04
 5.284101421473122494e-04
 5.189164064822446906e-04
 5.094404457954031977e-04
 4.999805443525941629e-04
 4.905350494293572597e-04
 </DataArray>
 <DataArray Name="massf[2]-N" type="Float32" NumberOfComponents="1" format="ascii">
 0.000000000000000000e+00
 0.000000000000000000e+00
 0.000000000000000000e+00
 0.000000000000000000e+00
 0.000000000000000000e+00
 0.000000000000000000e+00
 </DataArray>
 <DataArray Name="massf[3]-N2" type="Float32" NumberOfComponents="1" format="ascii">
 7.559209420763092213e-01
 7.559281372468942273e-01
 7.559353176229944848e-01
 7.559424845553848193e-01
 7.559496393417226567e-01
 7.559567832320093217e-01
 </DataArray>
 <DataArray Name="massf[4]-NO" type="Float32" NumberOfComponents="1" format="ascii">
 0.000000000000000000e+00
 0.000000000000000000e+00
 0.000000000000000000e+00
 0.000000000000000000e+00
 0.000000000000000000e+00
 0.000000000000000000e+00
 </DataArray>
 <DataArray Name="massf[5]-O" type="Float32" NumberOfComponents="1" format="ascii">
 0.000000000000000000e+00
 0.000000000000000000e+00
 0.000000000000000000e+00
 0.000000000000000000e+00
 0.000000000000000000e+00
 0.000000000000000000e+00
 </DataArray>
 <DataArray Name="massf[6]-O2" type="Float32" NumberOfComponents="1" format="ascii">
 2.435411344849356952e-01
 2.435434526109585829e-01
 2.435457659705233258e-01
 2.435480749988197524e-01
 2.435503801139247970e-01
 2.435526817185612314e-01
 </DataArray>
 <DataArray Name="dt_chem" type="Float32" NumberOfComponents="1" format="ascii">
 -1.000000000000000000e+00
 -1.000000000000000000e+00
 -1.000000000000000000e+00
 -1.000000000000000000e+00
 -1.000000000000000000e+00
 -1.000000000000000000e+00
 </DataArray>
 <DataArray Name="u" type="Float32" NumberOfComponents="1" format="ascii">
 1.742376638413536176e+07
 1.776056569854748622e+07
 1.810809101358909160e+07
 1.846642051935375482e+07
 1.883559872571119294e+07
 1.921563587611757964e+07
 </DataArray>
 <DataArray Name="T" type="Float32" NumberOfComponents="1" format="ascii">
 1.472162608604728666e+04
 1.491634093507510261e+04
 1.511636402981829451e+04
 1.532183619304290733e+04
 1.553290513987932354e+04
 1.574972759341981691e+04
 </DataArray>
 <DataArray Name="vel.vector" type="Float32" NumberOfComponents="3" format="ascii">
 1.093902246093750000e+04 1.814446716308593750e+02 0.000000000000000000e+00
 1.094576660156250000e+04 1.985427551269531250e+02 0.000000000000000000e+00
 1.095268750000000000e+04 2.149703674316406250e+02 0.000000000000000000e+00
 1.095979589843750000e+04 2.307491455078125000e+02 0.000000000000000000e+00
 1.096710351562500000e+04 2.459004211425781250e+02 0.000000000000000000e+00
 1.097462304687500000e+04 2.604451293945312500e+02 0.000000000000000000e+00
 </DataArray>
</CellData>
</Piece>
</UnstructuredGrid>
</VTKFile>
