<VTKFile type="UnstructuredGrid" byte_order="BigEndian">
<UnstructuredGrid><Piece NumberOfPoints="42" NumberOfCells="20">
<Points>
 <DataArray type="Float32" NumberOfComponents="3" format="ascii">
 9.210471153259277344e+00 0.000000000000000000e+00 0.000000000000000000e+00
 9.216885566711425781e+00 0.000000000000000000e+00 0.000000000000000000e+00
 9.223299980163574219e+00 0.000000000000000000e+00 0.000000000000000000e+00
 9.229714393615722656e+00 0.000000000000000000e+00 0.000000000000000000e+00
 9.236129760742187500e+00 0.000000000000000000e+00 0.000000000000000000e+00
 9.242544174194335938e+00 0.000000000000000000e+00 0.000000000000000000e+00
 9.248958587646484375e+00 0.000000000000000000e+00 0.000000000000000000e+00
 9.255373001098632812e+00 0.000000000000000000e+00 0.000000000000000000e+00
 9.261787414550781250e+00 0.000000000000000000e+00 0.000000000000000000e+00
 9.268202781677246094e+00 0.000000000000000000e+00 0.000000000000000000e+00
 9.274617195129394531e+00 0.000000000000000000e+00 0.000000000000000000e+00
 9.281031608581542969e+00 0.000000000000000000e+00 0.000000000000000000e+00
 9.287446022033691406e+00 0.000000000000000000e+00 0.000000000000000000e+00
 9.293860435485839844e+00 0.000000000000000000e+00 0.000000000000000000e+00
 9.300275802612304688e+00 0.000000000000000000e+00 0.000000000000000000e+00
 9.306690216064453125e+00 0.000000000000000000e+00 0.000000000000000000e+00
 9.313104629516601562e+00 0.000000000000000000e+00 0.000000000000000000e+00
 9.319519042968750000e+00 0.000000000000000000e+00 0.000000000000000000e+00
 9.325933456420898438e+00 0.000000000000000000e+00 0.000000000000000000e+00
 9.332348823547363281e+00 0.000000000000000000e+00 0.000000000000000000e+00
 9.338763236999511719e+00 0.000000000000000000e+00 0.000000000000000000e+00
 9.210471153259277344e+00 7.897099852561950684e-02 0.000000000000000000e+00
 9.216885566711425781e+00 7.930769771337509155e-02 0.000000000000000000e+00
 9.223299980163574219e+00 7.964439690113067627e-02 0.000000000000000000e+00
 9.229714393615722656e+00 7.998110353946685791e-02 0.000000000000000000e+00
 9.236129760742187500e+00 8.031780272722244263e-02 0.000000000000000000e+00
 9.242544174194335938e+00 8.065450191497802734e-02 0.000000000000000000e+00
 9.248958587646484375e+00 8.099120110273361206e-02 0.000000000000000000e+00
 9.255373001098632812e+00 8.132790029048919678e-02 0.000000000000000000e+00
 9.261787414550781250e+00 8.166459947824478149e-02 0.000000000000000000e+00
 9.268202781677246094e+00 8.200129866600036621e-02 0.000000000000000000e+00
 9.274617195129394531e+00 8.233799785375595093e-02 0.000000000000000000e+00
 9.281031608581542969e+00 8.267469704151153564e-02 0.000000000000000000e+00
 9.287446022033691406e+00 8.301140367984771729e-02 0.000000000000000000e+00
 9.293860435485839844e+00 8.334810286760330200e-02 0.000000000000000000e+00
 9.300275802612304688e+00 8.368480205535888672e-02 0.000000000000000000e+00
 9.306690216064453125e+00 8.402150124311447144e-02 0.000000000000000000e+00
 9.313104629516601562e+00 8.435820043087005615e-02 0.000000000000000000e+00
 9.319519042968750000e+00 8.469489961862564087e-02 0.000000000000000000e+00
 9.325933456420898438e+00 8.503159880638122559e-02 0.000000000000000000e+00
 9.332348823547363281e+00 8.536829799413681030e-02 0.000000000000000000e+00
 9.338763236999511719e+00 8.570499718189239502e-02 0.000000000000000000e+00
 </DataArray>
</Points>
<Cells>
 <DataArray type="Int32" Name="connectivity" format="ascii">
 0 1 22 21
 1 2 23 22
 2 3 24 23
 3 4 25 24
 4 5 26 25
 5 6 27 26
 6 7 28 27
 7 8 29 28
 8 9 30 29
 9 10 31 30
 10 11 32 31
 11 12 33 32
 12 13 34 33
 13 14 35 34
 14 15 36 35
 15 16 37 36
 16 17 38 37
 17 18 39 38
 18 19 40 39
 19 20 41 40
 </DataArray>
 <DataArray type="Int32" Name="offsets" format="ascii">
 4
 8
 12
 16
 20
 24
 28
 32
 36
 40
 44
 48
 52
 56
 60
 64
 68
 72
 76
 80
 </DataArray>
 <DataArray type="UInt8" Name="types" format="ascii">
 9
 9
 9
 9
 9
 9
 9
 9
 9
 9
 9
 9
 9
 9
 9
 9
 9
 9
 9
 9
 </DataArray>
</Cells>
<CellData>
 <DataArray Name="pos.x" type="Float32" NumberOfComponents="1" format="ascii">
 9.213680574255157296e+00
 9.220095164618202332e+00
 9.226509755068965646e+00
 9.232924345590305393e+00
 9.239338936199290586e+00
 9.245753526882877438e+00
 9.252168117643849499e+00
 9.258582708480647128e+00
 9.264997299396849684e+00
 9.271411890381134668e+00
 9.277826481444675366e+00
 9.284241072579485277e+00
 9.290655663783676133e+00
 9.297070255059932009e+00
 9.303484846407704012e+00
 9.309899437821183454e+00
 9.316314029307765310e+00
 9.322728620860885940e+00
 9.329143212479753089e+00
 9.335557804160885098e+00
 </DataArray>
 <DataArray Name="pos.y" type="Float32" NumberOfComponents="1" format="ascii">
 3.956973468738463062e-02
 3.973808443451085082e-02
 3.990643418379017510e-02
 4.007478393515015447e-02
 4.024313368861873186e-02
 4.041148344411918392e-02
 4.057983320166197450e-02
 4.074818296119439576e-02
 4.091653272272540581e-02
 4.108488248619353300e-02
 4.125323225159490542e-02
 4.142158201891499997e-02
 4.158993178810717339e-02
 4.175828155916327944e-02
 4.192663133205217635e-02
 4.209498110676925670e-02
 4.226333088327512144e-02
 4.243168066155746099e-02
 4.260003044159536151e-02
 4.276838022335004846e-02
 </DataArray>
 <DataArray Name="pos.z" type="Float32" NumberOfComponents="1" format="ascii">
 0.000000000000000000e+00
 0.000000000000000000e+00
 0.000000000000000000e+00
 0.000000000000000000e+00
 0.000000000000000000e+00
 0.000000000000000000e+00
 0.000000000000000000e+00
 0.000000000000000000e+00
 0.000000000000000000e+00
 0.000000000000000000e+00
 0.000000000000000000e+00
 0.000000000000000000e+00
 0.000000000000000000e+00
 0.000000000000000000e+00
 0.000000000000000000e+00
 0.000000000000000000e+00
 0.000000000000000000e+00
 0.000000000000000000e+00
 0.000000000000000000e+00
 0.000000000000000000e+00
 </DataArray>
 <DataArray Name="volume" type="Float32" NumberOfComponents="1" format="ascii">
 2.008746796713563613e-05
 2.025875640608386765e-05
 2.043077204829025738e-05
 2.060351489374925220e-05
 2.077698494246658481e-05
 2.095118219442500284e-05
 2.112610664964762692e-05
 2.130175830811113991e-05
 2.147813716983308218e-05
 2.165524323480762952e-05
 2.183307650304081620e-05
 2.201163697451451572e-05
 2.219092464925298709e-05
 2.237093952723176463e-05
 2.255168160846928653e-05
 2.273315089296569849e-05
 2.291534738070210152e-05
 2.309827107169740816e-05
 2.328192196595175054e-05
 2.346630006344579261e-05
 </DataArray>
 <DataArray Name="rho" type="Float32" NumberOfComponents="1" format="ascii">
 5.775140888238352232e-04
 5.775140888238352232e-04
 5.775140888238352232e-04
 5.775140888238352232e-04
 5.775140888238352232e-04
 5.775140888238352232e-04
 5.775140888238352232e-04
 5.775140888238352232e-04
 5.775140888238352232e-04
 5.775140888238352232e-04
 5.775140888238352232e-04
 5.775140888238352232e-04
 5.775140888238352232e-04
 5.775140888238352232e-04
 5.775140888238352232e-04
 5.775140888238352232e-04
 5.775140888238352232e-04
 5.775140888238352232e-04
 5.775140888238352232e-04
 5.775140888238352232e-04
 </DataArray>
 <DataArray Name="vel.x" type="Float32" NumberOfComponents="1" format="ascii">
 -1.101766347694586213e-12
 -1.274891071158154442e-12
 -1.757998903839397741e-12
 -1.628718162620931241e-12
 -2.071294266059621304e-12
 -1.975293380131885557e-12
 -2.066920125812567135e-12
 -1.935861368251155136e-12
 -2.272056817339482063e-12
 -2.144859273142009967e-12
 -2.016951172312708774e-12
 -2.282907880659043876e-12
 -2.227762290535426801e-12
 -2.086226584066818105e-12
 -1.880469084156778950e-12
 -2.037004263257060436e-12
 -2.163306083653842151e-12
 -2.301271487241334401e-12
 -2.246658386165192135e-12
 -1.645084167299780404e-12
 </DataArray>
 <DataArray Name="vel.y" type="Float32" NumberOfComponents="1" format="ascii">
 -3.227536718170823687e-11
 2.012390790707002056e-11
 -4.915886846312342645e-11
 4.215047531133210061e-11
 -4.280019567339293110e-11
 1.048423067011414869e-11
 -2.094199587334382636e-11
 3.211596096553728014e-11
 -3.620772059609398153e-11
 9.118262502892815991e-13
 2.095557707794822173e-11
 -2.983320446324387437e-11
 -1.024904621790252345e-11
 -8.420009823358817205e-12
 2.824813186502082300e-11
 -5.001810569518732502e-12
 -2.504153806891278599e-12
 -1.731136749301883852e-11
 -5.077805549694044314e-11
 3.215286963113581806e-12
 </DataArray>
 <DataArray Name="vel.z" type="Float32" NumberOfComponents="1" format="ascii">
 0.000000000000000000e+00
 0.000000000000000000e+00
 0.000000000000000000e+00
 0.000000000000000000e+00
 0.000000000000000000e+00
 0.000000000000000000e+00
 0.000000000000000000e+00
 0.000000000000000000e+00
 0.000000000000000000e+00
 0.000000000000000000e+00
 0.000000000000000000e+00
 0.000000000000000000e+00
 0.000000000000000000e+00
 0.000000000000000000e+00
 0.000000000000000000e+00
 0.000000000000000000e+00
 0.000000000000000000e+00
 0.000000000000000000e+00
 0.000000000000000000e+00
 0.000000000000000000e+00
 </DataArray>
 <DataArray Name="p" type="Float32" NumberOfComponents="1" format="ascii">
 4.999999999999998579e+01
 4.999999999999998579e+01
 4.999999999999998579e+01
 4.999999999999998579e+01
 4.999999999999998579e+01
 4.999999999999998579e+01
 4.999999999999998579e+01
 4.999999999999998579e+01
 4.999999999999998579e+01
 4.999999999999998579e+01
 4.999999999999998579e+01
 4.999999999999998579e+01
 4.999999999999998579e+01
 4.999999999999998579e+01
 4.999999999999998579e+01
 4.999999999999998579e+01
 4.999999999999998579e+01
 4.999999999999998579e+01
 4.999999999999998579e+01
 4.999999999999998579e+01
 </DataArray>
 <DataArray Name="a" type="Float32" NumberOfComponents="1" format="ascii">
 3.479677708626071535e+02
 3.479677708626071535e+02
 3.479677708626071535e+02
 3.479677708626071535e+02
 3.479677708626071535e+02
 3.479677708626071535e+02
 3.479677708626071535e+02
 3.479677708626071535e+02
 3.479677708626071535e+02
 3.479677708626071535e+02
 3.479677708626071535e+02
 3.479677708626071535e+02
 3.479677708626071535e+02
 3.479677708626071535e+02
 3.479677708626071535e+02
 3.479677708626071535e+02
 3.479677708626071535e+02
 3.479677708626071535e+02
 3.479677708626071535e+02
 3.479677708626071535e+02
 </DataArray>
 <DataArray Name="mu" type="Float32" NumberOfComponents="1" format="ascii">
 1.847444588311345095e-05
 1.847444588311345095e-05
 1.847444588311345095e-05
 1.847444588311345095e-05
 1.847444588311345095e-05
 1.847444588311345095e-05
 1.847444588311345095e-05
 1.847444588311345095e-05
 1.847444588311345095e-05
 1.847444588311345095e-05
 1.847444588311345095e-05
 1.847444588311345095e-05
 1.847444588311345095e-05
 1.847444588311345095e-05
 1.847444588311345095e-05
 1.847444588311345095e-05
 1.847444588311345095e-05
 1.847444588311345095e-05
 1.847444588311345095e-05
 1.847444588311345095e-05
 </DataArray>
 <DataArray Name="k" type="Float32" NumberOfComponents="1" format="ascii">
 2.625219405453244753e-02
 2.625219405453244753e-02
 2.625219405453244753e-02
 2.625219405453244753e-02
 2.625219405453244753e-02
 2.625219405453244753e-02
 2.625219405453244753e-02
 2.625219405453244753e-02
 2.625219405453244753e-02
 2.625219405453244753e-02
 2.625219405453244753e-02
 2.625219405453244753e-02
 2.625219405453244753e-02
 2.625219405453244753e-02
 2.625219405453244753e-02
 2.625219405453244753e-02
 2.625219405453244753e-02
 2.625219405453244753e-02
 2.625219405453244753e-02
 2.625219405453244753e-02
 </DataArray>
 <DataArray Name="mu_t" type="Float32" NumberOfComponents="1" format="ascii">
 0.000000000000000000e+00
 0.000000000000000000e+00
 0.000000000000000000e+00
 0.000000000000000000e+00
 0.000000000000000000e+00
 0.000000000000000000e+00
 0.000000000000000000e+00
 0.000000000000000000e+00
 0.000000000000000000e+00
 0.000000000000000000e+00
 0.000000000000000000e+00
 0.000000000000000000e+00
 0.000000000000000000e+00
 0.000000000000000000e+00
 0.000000000000000000e+00
 0.000000000000000000e+00
 0.000000000000000000e+00
 0.000000000000000000e+00
 0.000000000000000000e+00
 0.000000000000000000e+00
 </DataArray>
 <DataArray Name="k_t" type="Float32" NumberOfComponents="1" format="ascii">
 0.000000000000000000e+00
 0.000000000000000000e+00
 0.000000000000000000e+00
 0.000000000000000000e+00
 0.000000000000000000e+00
 0.000000000000000000e+00
 0.000000000000000000e+00
 0.000000000000000000e+00
 0.000000000000000000e+00
 0.000000000000000000e+00
 0.000000000000000000e+00
 0.000000000000000000e+00
 0.000000000000000000e+00
 0.000000000000000000e+00
 0.000000000000000000e+00
 0.000000000000000000e+00
 0.000000000000000000e+00
 0.000000000000000000e+00
 0.000000000000000000e+00
 0.000000000000000000e+00
 </DataArray>
 <DataArray Name="S" type="Float32" NumberOfComponents="1" format="ascii">
 0.000000000000000000e+00
 0.000000000000000000e+00
 0.000000000000000000e+00
 0.000000000000000000e+00
 0.000000000000000000e+00
 0.000000000000000000e+00
 0.000000000000000000e+00
 0.000000000000000000e+00
 0.000000000000000000e+00
 0.000000000000000000e+00
 0.000000000000000000e+00
 0.000000000000000000e+00
 0.000000000000000000e+00
 0.000000000000000000e+00
 0.000000000000000000e+00
 0.000000000000000000e+00
 0.000000000000000000e+00
 0.000000000000000000e+00
 0.000000000000000000e+00
 0.000000000000000000e+00
 </DataArray>
 <DataArray Name="massf[0]-Ar" type="Float32" NumberOfComponents="1" format="ascii">
 0.000000000000000000e+00
 0.000000000000000000e+00
 0.000000000000000000e+00
 0.000000000000000000e+00
 0.000000000000000000e+00
 0.000000000000000000e+00
 0.000000000000000000e+00
 0.000000000000000000e+00
 0.000000000000000000e+00
 0.000000000000000000e+00
 0.000000000000000000e+00
 0.000000000000000000e+00
 0.000000000000000000e+00
 0.000000000000000000e+00
 0.000000000000000000e+00
 0.000000000000000000e+00
 0.000000000000000000e+00
 0.000000000000000000e+00
 0.000000000000000000e+00
 0.000000000000000000e+00
 </DataArray>
 <DataArray Name="massf[1]-He" type="Float32" NumberOfComponents="1" format="ascii">
 0.000000000000000000e+00
 0.000000000000000000e+00
 0.000000000000000000e+00
 0.000000000000000000e+00
 0.000000000000000000e+00
 0.000000000000000000e+00
 0.000000000000000000e+00
 0.000000000000000000e+00
 0.000000000000000000e+00
 0.000000000000000000e+00
 0.000000000000000000e+00
 0.000000000000000000e+00
 0.000000000000000000e+00
 0.000000000000000000e+00
 0.000000000000000000e+00
 0.000000000000000000e+00
 0.000000000000000000e+00
 0.000000000000000000e+00
 0.000000000000000000e+00
 0.000000000000000000e+00
 </DataArray>
 <DataArray Name="massf[2]-N" type="Float32" NumberOfComponents="1" format="ascii">
 0.000000000000000000e+00
 0.000000000000000000e+00
 0.000000000000000000e+00
 0.000000000000000000e+00
 0.000000000000000000e+00
 0.000000000000000000e+00
 0.000000000000000000e+00
 0.000000000000000000e+00
 0.000000000000000000e+00
 0.000000000000000000e+00
 0.000000000000000000e+00
 0.000000000000000000e+00
 0.000000000000000000e+00
 0.000000000000000000e+00
 0.000000000000000000e+00
 0.000000000000000000e+00
 0.000000000000000000e+00
 0.000000000000000000e+00
 0.000000000000000000e+00
 0.000000000000000000e+00
 </DataArray>
 <DataArray Name="massf[3]-N2" type="Float32" NumberOfComponents="1" format="ascii">
 7.778669428624583881e-01
 7.778669428624583881e-01
 7.778669428624583881e-01
 7.778669428624583881e-01
 7.778669428624583881e-01
 7.778669428624583881e-01
 7.778669428624583881e-01
 7.778669428624583881e-01
 7.778669428624583881e-01
 7.778669428624583881e-01
 7.778669428624583881e-01
 7.778669428624583881e-01
 7.778669428624583881e-01
 7.778669428624583881e-01
 7.778669428624583881e-01
 7.778669428624583881e-01
 7.778669428624583881e-01
 7.778669428624583881e-01
 7.778669428624583881e-01
 7.778669428624583881e-01
 </DataArray>
 <DataArray Name="massf[4]-NO" type="Float32" NumberOfComponents="1" format="ascii">
 0.000000000000000000e+00
 0.000000000000000000e+00
 0.000000000000000000e+00
 0.000000000000000000e+00
 0.000000000000000000e+00
 0.000000000000000000e+00
 0.000000000000000000e+00
 0.000000000000000000e+00
 0.000000000000000000e+00
 0.000000000000000000e+00
 0.000000000000000000e+00
 0.000000000000000000e+00
 0.000000000000000000e+00
 0.000000000000000000e+00
 0.000000000000000000e+00
 0.000000000000000000e+00
 0.000000000000000000e+00
 0.000000000000000000e+00
 0.000000000000000000e+00
 0.000000000000000000e+00
 </DataArray>
 <DataArray Name="massf[5]-O" type="Float32" NumberOfComponents="1" format="ascii">
 0.000000000000000000e+00
 0.000000000000000000e+00
 0.000000000000000000e+00
 0.000000000000000000e+00
 0.000000000000000000e+00
 0.000000000000000000e+00
 0.000000000000000000e+00
 0.000000000000000000e+00
 0.000000000000000000e+00
 0.000000000000000000e+00
 0.000000000000000000e+00
 0.000000000000000000e+00
 0.000000000000000000e+00
 0.000000000000000000e+00
 0.000000000000000000e+00
 0.000000000000000000e+00
 0.000000000000000000e+00
 0.000000000000000000e+00
 0.000000000000000000e+00
 0.000000000000000000e+00
 </DataArray>
 <DataArray Name="massf[6]-O2" type="Float32" NumberOfComponents="1" format="ascii">
 2.221330571375415841e-01
 2.221330571375415841e-01
 2.221330571375415841e-01
 2.221330571375415841e-01
 2.221330571375415841e-01
 2.221330571375415841e-01
 2.221330571375415841e-01
 2.221330571375415841e-01
 2.221330571375415841e-01
 2.221330571375415841e-01
 2.221330571375415841e-01
 2.221330571375415841e-01
 2.221330571375415841e-01
 2.221330571375415841e-01
 2.221330571375415841e-01
 2.221330571375415841e-01
 2.221330571375415841e-01
 2.221330571375415841e-01
 2.221330571375415841e-01
 2.221330571375415841e-01
 </DataArray>
 <DataArray Name="dt_chem" type="Float32" NumberOfComponents="1" format="ascii">
 -1.000000000000000000e+00
 -1.000000000000000000e+00
 -1.000000000000000000e+00
 -1.000000000000000000e+00
 -1.000000000000000000e+00
 -1.000000000000000000e+00
 -1.000000000000000000e+00
 -1.000000000000000000e+00
 -1.000000000000000000e+00
 -1.000000000000000000e+00
 -1.000000000000000000e+00
 -1.000000000000000000e+00
 -1.000000000000000000e+00
 -1.000000000000000000e+00
 -1.000000000000000000e+00
 -1.000000000000000000e+00
 -1.000000000000000000e+00
 -1.000000000000000000e+00
 -1.000000000000000000e+00
 -1.000000000000000000e+00
 </DataArray>
 <DataArray Name="u" type="Float32" NumberOfComponents="1" format="ascii">
 -8.470447781759938516e+04
 -8.470447781759938516e+04
 -8.470447781759938516e+04
 -8.470447781759938516e+04
 -8.470447781759938516e+04
 -8.470447781759938516e+04
 -8.470447781759938516e+04
 -8.470447781759938516e+04
 -8.470447781759938516e+04
 -8.470447781759938516e+04
 -8.470447781759938516e+04
 -8.470447781759938516e+04
 -8.470447781759938516e+04
 -8.470447781759938516e+04
 -8.470447781759938516e+04
 -8.470447781759938516e+04
 -8.470447781759938516e+04
 -8.470447781759938516e+04
 -8.470447781759938516e+04
 -8.470447781759938516e+04
 </DataArray>
 <DataArray Name="T" type="Float32" NumberOfComponents="1" format="ascii">
 3.000000000000000000e+02
 3.000000000000000000e+02
 3.000000000000000000e+02
 3.000000000000000000e+02
 3.000000000000000000e+02
 3.000000000000000000e+02
 3.000000000000000000e+02
 3.000000000000000000e+02
 3.000000000000000000e+02
 3.000000000000000000e+02
 3.000000000000000000e+02
 3.000000000000000000e+02
 3.000000000000000000e+02
 3.000000000000000000e+02
 3.000000000000000000e+02
 3.000000000000000000e+02
 3.000000000000000000e+02
 3.000000000000000000e+02
 3.000000000000000000e+02
 3.000000000000000000e+02
 </DataArray>
 <DataArray Name="vel.vector" type="Float32" NumberOfComponents="3" format="ascii">
 -1.101766356099986854e-12 -3.227536640726391681e-11 0.000000000000000000e+00
 -1.274891108481168711e-12 2.012390774852601538e-11 0.000000000000000000e+00
 -1.757998911375291407e-12 -4.915886794853996378e-11 0.000000000000000000e+00
 -1.628718210647250864e-12 4.215047408329120060e-11 0.000000000000000000e+00
 -2.071294307945392710e-12 -4.280019394453660198e-11 0.000000000000000000e+00
 -1.975293409742229223e-12 1.048423067112613793e-11 0.000000000000000000e+00
 -2.066920202700717191e-12 -2.094199640090277370e-11 0.000000000000000000e+00
 -1.935861410409800420e-12 3.211596266705640801e-11 0.000000000000000000e+00
 -2.272056891586271554e-12 -3.620772084933499002e-11 0.000000000000000000e+00
 -2.144859376912444660e-12 9.118262785448583152e-13 0.000000000000000000e+00
 -2.016951276134770765e-12 2.095557755099619612e-11 0.000000000000000000e+00
 -2.282907803768940980e-12 -2.983320535054900802e-11 0.000000000000000000e+00
 -2.227762245510245265e-12 -1.024904640323232030e-11 0.000000000000000000e+00
 -2.086226590786166568e-12 -8.420009481313606159e-12 0.000000000000000000e+00
 -1.880469087736647005e-12 2.824813126467429214e-11 0.000000000000000000e+00
 -2.037004245836193661e-12 -5.001810597649036794e-12 0.000000000000000000e+00
 -2.163305992675113032e-12 -2.504153785373719465e-12 0.000000000000000000e+00
 -2.301271586485631460e-12 -1.731136761717877448e-11 0.000000000000000000e+00
 -2.246658371493626127e-12 -5.077805537156976357e-11 0.000000000000000000e+00
 -1.645084134020702304e-12 3.215286977636955257e-12 0.000000000000000000e+00
 </DataArray>
</CellData>
</Piece>
</UnstructuredGrid>
</VTKFile>
