<VTKFile type="UnstructuredGrid" byte_order="BigEndian">
<UnstructuredGrid><Piece NumberOfPoints="50" NumberOfCells="24">
<Points>
 <DataArray type="Float32" NumberOfComponents="3" format="ascii">
 9.480260848999023438e+00 0.000000000000000000e+00 0.000000000000000000e+00
 9.486679077148437500e+00 0.000000000000000000e+00 0.000000000000000000e+00
 9.493098258972167969e+00 0.000000000000000000e+00 0.000000000000000000e+00
 9.499516487121582031e+00 0.000000000000000000e+00 0.000000000000000000e+00
 9.505934715270996094e+00 0.000000000000000000e+00 0.000000000000000000e+00
 9.512353897094726562e+00 0.000000000000000000e+00 0.000000000000000000e+00
 9.518772125244140625e+00 0.000000000000000000e+00 0.000000000000000000e+00
 9.525190353393554688e+00 0.000000000000000000e+00 0.000000000000000000e+00
 9.531609535217285156e+00 0.000000000000000000e+00 0.000000000000000000e+00
 9.538027763366699219e+00 0.000000000000000000e+00 0.000000000000000000e+00
 9.544445991516113281e+00 0.000000000000000000e+00 0.000000000000000000e+00
 9.550865173339843750e+00 0.000000000000000000e+00 0.000000000000000000e+00
 9.557283401489257812e+00 0.000000000000000000e+00 0.000000000000000000e+00
 9.563701629638671875e+00 0.000000000000000000e+00 0.000000000000000000e+00
 9.570120811462402344e+00 0.000000000000000000e+00 0.000000000000000000e+00
 9.576539039611816406e+00 0.000000000000000000e+00 0.000000000000000000e+00
 9.582957267761230469e+00 0.000000000000000000e+00 0.000000000000000000e+00
 9.589376449584960938e+00 0.000000000000000000e+00 0.000000000000000000e+00
 9.595794677734375000e+00 0.000000000000000000e+00 0.000000000000000000e+00
 9.602212905883789062e+00 0.000000000000000000e+00 0.000000000000000000e+00
 9.608632087707519531e+00 0.000000000000000000e+00 0.000000000000000000e+00
 9.615050315856933594e+00 0.000000000000000000e+00 0.000000000000000000e+00
 9.621468544006347656e+00 0.000000000000000000e+00 0.000000000000000000e+00
 9.627887725830078125e+00 0.000000000000000000e+00 0.000000000000000000e+00
 9.634305953979492188e+00 0.000000000000000000e+00 0.000000000000000000e+00
 9.480260848999023438e+00 9.185600280761718750e-02 0.000000000000000000e+00
 9.486679077148437500e+00 9.205987304449081421e-02 0.000000000000000000e+00
 9.493098258972167969e+00 9.226375073194503784e-02 0.000000000000000000e+00
 9.499516487121582031e+00 9.246762841939926147e-02 0.000000000000000000e+00
 9.505934715270996094e+00 9.267149865627288818e-02 0.000000000000000000e+00
 9.512353897094726562e+00 9.287537634372711182e-02 0.000000000000000000e+00
 9.518772125244140625e+00 9.307924658060073853e-02 0.000000000000000000e+00
 9.525190353393554688e+00 9.328312426805496216e-02 0.000000000000000000e+00
 9.531609535217285156e+00 9.348700195550918579e-02 0.000000000000000000e+00
 9.538027763366699219e+00 9.369087219238281250e-02 0.000000000000000000e+00
 9.544445991516113281e+00 9.389474987983703613e-02 0.000000000000000000e+00
 9.550865173339843750e+00 9.409862756729125977e-02 0.000000000000000000e+00
 9.557283401489257812e+00 9.430249780416488647e-02 0.000000000000000000e+00
 9.563701629638671875e+00 9.450637549161911011e-02 0.000000000000000000e+00
 9.570120811462402344e+00 9.471025317907333374e-02 0.000000000000000000e+00
 9.576539039611816406e+00 9.491412341594696045e-02 0.000000000000000000e+00
 9.582957267761230469e+00 9.511800110340118408e-02 0.000000000000000000e+00
 9.589376449584960938e+00 9.532187134027481079e-02 0.000000000000000000e+00
 9.595794677734375000e+00 9.552574902772903442e-02 0.000000000000000000e+00
 9.602212905883789062e+00 9.572962671518325806e-02 0.000000000000000000e+00
 9.608632087707519531e+00 9.593349695205688477e-02 0.000000000000000000e+00
 9.615050315856933594e+00 9.613737463951110840e-02 0.000000000000000000e+00
 9.621468544006347656e+00 9.634125232696533203e-02 0.000000000000000000e+00
 9.627887725830078125e+00 9.654512256383895874e-02 0.000000000000000000e+00
 9.634305953979492188e+00 9.674900025129318237e-02 0.000000000000000000e+00
 </DataArray>
</Points>
<Cells>
 <DataArray type="Int32" Name="connectivity" format="ascii">
 0 1 26 25
 1 2 27 26
 2 3 28 27
 3 4 29 28
 4 5 30 29
 5 6 31 30
 6 7 32 31
 7 8 33 32
 8 9 34 33
 9 10 35 34
 10 11 36 35
 11 12 37 36
 12 13 38 37
 13 14 39 38
 14 15 40 39
 15 16 41 40
 16 17 42 41
 17 18 43 42
 18 19 44 43
 19 20 45 44
 20 21 46 45
 21 22 47 46
 22 23 48 47
 23 24 49 48
 </DataArray>
 <DataArray type="Int32" Name="offsets" format="ascii">
 4
 8
 12
 16
 20
 24
 28
 32
 36
 40
 44
 48
 52
 56
 60
 64
 68
 72
 76
 80
 84
 88
 92
 96
 </DataArray>
 <DataArray type="UInt8" Name="types" format="ascii">
 9
 9
 9
 9
 9
 9
 9
 9
 9
 9
 9
 9
 9
 9
 9
 9
 9
 9
 9
 9
 9
 9
 9
 9
 </DataArray>
</Cells>
<CellData>
 <DataArray Name="pos.x" type="Float32" NumberOfComponents="1" format="ascii">
 9.483471456682620371e+00
 9.489889995725549809e+00
 9.496308534781720212e+00
 9.502727073848923567e+00
 9.509145612927316193e+00
 9.515564152015558719e+00
 9.521982691114658337e+00
 9.528401230228846330e+00
 9.534819769348374052e+00
 9.541238308485789688e+00
 9.547656847630186405e+00
 9.554075386784496970e+00
 9.560493925952114225e+00
 9.566912465131412802e+00
 9.573331004316507631e+00
 9.579749543518387256e+00
 9.586168082725540884e+00
 9.592586621943922864e+00
 9.599005161178075340e+00
 9.605423700415594013e+00
 9.611842239670288279e+00
 9.618260778929773380e+00
 9.624679318197262745e+00
 9.631097857482082247e+00
 </DataArray>
 <DataArray Name="pos.y" type="Float32" NumberOfComponents="1" format="ascii">
 4.597898758334380276e-02
 4.608092504168421338e-02
 4.618286250019780492e-02
 4.628479995890963372e-02
 4.638673741780151294e-02
 4.648867487686114686e-02
 4.659061233610832520e-02
 4.669254979552926038e-02
 4.679448725512699164e-02
 4.689642471490895054e-02
 4.699836217486108580e-02
 4.710029963497796429e-02
 4.720223709528002798e-02
 4.730417455574879165e-02
 4.740611201637912747e-02
 4.750804947719989429e-02
 4.760998693815805122e-02
 4.771192439929656387e-02
 4.781386186061714616e-02
 4.791579932207282871e-02
 4.801773678372212029e-02
 4.811967424551198691e-02
 4.822161170746405712e-02
 4.832354916958925967e-02
 </DataArray>
 <DataArray Name="pos.z" type="Float32" NumberOfComponents="1" format="ascii">
 0.000000000000000000e+00
 0.000000000000000000e+00
 0.000000000000000000e+00
 0.000000000000000000e+00
 0.000000000000000000e+00
 0.000000000000000000e+00
 0.000000000000000000e+00
 0.000000000000000000e+00
 0.000000000000000000e+00
 0.000000000000000000e+00
 0.000000000000000000e+00
 0.000000000000000000e+00
 0.000000000000000000e+00
 0.000000000000000000e+00
 0.000000000000000000e+00
 0.000000000000000000e+00
 0.000000000000000000e+00
 0.000000000000000000e+00
 0.000000000000000000e+00
 0.000000000000000000e+00
 0.000000000000000000e+00
 0.000000000000000000e+00
 0.000000000000000000e+00
 0.000000000000000000e+00
 </DataArray>
 <DataArray Name="volume" type="Float32" NumberOfComponents="1" format="ascii">
 2.713844697585161530e-05
 2.725891470383823534e-05
 2.737964921868509127e-05
 2.750065052021816186e-05
 2.762191860859663850e-05
 2.774345348373687158e-05
 2.786525514567711991e-05
 2.798732359439437127e-05
 2.810965882989629303e-05
 2.823226085218284790e-05
 2.835512966124624658e-05
 2.847826525710998576e-05
 2.860166763975055179e-05
 2.872533680916784644e-05
 2.884927276538568487e-05
 2.897347550838024513e-05
 2.909794503815142896e-05
 2.922268135473146428e-05
 2.934768445806382010e-05
 2.947295434820515616e-05
 2.959849102512304464e-05
 2.972429448881736696e-05
 2.985036473931280566e-05
 2.997670177658468837e-05
 </DataArray>
 <DataArray Name="rho" type="Float32" NumberOfComponents="1" format="ascii">
 5.775140888238352232e-04
 5.775140888238352232e-04
 5.775140888238352232e-04
 5.775140888238352232e-04
 5.775140888238352232e-04
 5.775140888238352232e-04
 5.775140888238352232e-04
 5.775140888238352232e-04
 5.775140888238352232e-04
 5.775140888238352232e-04
 5.775140888238352232e-04
 5.775140888238352232e-04
 5.775140888238352232e-04
 5.775140888238352232e-04
 5.775140888238352232e-04
 5.775140888238352232e-04
 5.775140888238352232e-04
 5.775140888238352232e-04
 5.775140888238352232e-04
 5.775140888238352232e-04
 5.775140888238352232e-04
 5.775140888238352232e-04
 5.775140888238352232e-04
 5.775140888238352232e-04
 </DataArray>
 <DataArray Name="vel.x" type="Float32" NumberOfComponents="1" format="ascii">
 3.467253994167013005e-13
 4.935256310190532538e-13
 6.377086149812752887e-13
 5.600092899326079717e-13
 4.827319216228308829e-13
 5.213573811739412019e-13
 6.362278811176249445e-13
 5.606372624706872486e-13
 5.213594720233197947e-13
 3.242077120765722131e-13
 5.775773166694355958e-14
 1.899585789695533668e-14
 -1.935257045619291249e-13
 -3.476414757838016580e-13
 -4.752252317955899944e-13
 -6.162789580142626290e-13
 -3.478071830018898258e-13
 -2.703754158722433300e-13
 -4.114778109252245449e-13
 -2.121987395261550783e-13
 -2.897641649875453584e-13
 -5.809645054102987200e-14
 6.367405574754481745e-14
 3.891176793652997324e-14
 </DataArray>
 <DataArray Name="vel.y" type="Float32" NumberOfComponents="1" format="ascii">
 1.195385684002994676e-11
 -1.690445745139117056e-12
 4.312969542275099131e-11
 4.226668525956323943e-12
 -2.694206436438899143e-11
 9.002618713448332207e-12
 5.315459671131882792e-13
 1.400807942955196107e-11
 2.742865641702423884e-11
 -4.885406780792295926e-12
 -1.421637136082967911e-11
 2.172551077863935521e-11
 -1.058453443423175575e-11
 -1.946158415124533165e-11
 1.602283232726579232e-11
 -6.132779570991456138e-11
 2.080424990676292476e-11
 3.127120139210527946e-11
 -4.289444168425218892e-11
 3.650538694344882615e-11
 -3.993312671203345845e-11
 -2.617973030650021359e-12
 3.082682716438819020e-11
 -5.675032549999344234e-13
 </DataArray>
 <DataArray Name="vel.z" type="Float32" NumberOfComponents="1" format="ascii">
 0.000000000000000000e+00
 0.000000000000000000e+00
 0.000000000000000000e+00
 0.000000000000000000e+00
 0.000000000000000000e+00
 0.000000000000000000e+00
 0.000000000000000000e+00
 0.000000000000000000e+00
 0.000000000000000000e+00
 0.000000000000000000e+00
 0.000000000000000000e+00
 0.000000000000000000e+00
 0.000000000000000000e+00
 0.000000000000000000e+00
 0.000000000000000000e+00
 0.000000000000000000e+00
 0.000000000000000000e+00
 0.000000000000000000e+00
 0.000000000000000000e+00
 0.000000000000000000e+00
 0.000000000000000000e+00
 0.000000000000000000e+00
 0.000000000000000000e+00
 0.000000000000000000e+00
 </DataArray>
 <DataArray Name="p" type="Float32" NumberOfComponents="1" format="ascii">
 4.999999999999998579e+01
 4.999999999999998579e+01
 4.999999999999998579e+01
 4.999999999999998579e+01
 4.999999999999998579e+01
 4.999999999999998579e+01
 4.999999999999998579e+01
 4.999999999999998579e+01
 4.999999999999998579e+01
 4.999999999999998579e+01
 4.999999999999998579e+01
 4.999999999999998579e+01
 4.999999999999998579e+01
 4.999999999999998579e+01
 4.999999999999998579e+01
 4.999999999999998579e+01
 4.999999999999998579e+01
 4.999999999999998579e+01
 4.999999999999998579e+01
 4.999999999999998579e+01
 4.999999999999998579e+01
 4.999999999999998579e+01
 4.999999999999998579e+01
 4.999999999999998579e+01
 </DataArray>
 <DataArray Name="a" type="Float32" NumberOfComponents="1" format="ascii">
 3.479677708626071535e+02
 3.479677708626071535e+02
 3.479677708626071535e+02
 3.479677708626071535e+02
 3.479677708626071535e+02
 3.479677708626071535e+02
 3.479677708626071535e+02
 3.479677708626071535e+02
 3.479677708626071535e+02
 3.479677708626071535e+02
 3.479677708626071535e+02
 3.479677708626071535e+02
 3.479677708626071535e+02
 3.479677708626071535e+02
 3.479677708626071535e+02
 3.479677708626071535e+02
 3.479677708626071535e+02
 3.479677708626071535e+02
 3.479677708626071535e+02
 3.479677708626071535e+02
 3.479677708626071535e+02
 3.479677708626071535e+02
 3.479677708626071535e+02
 3.479677708626071535e+02
 </DataArray>
 <DataArray Name="mu" type="Float32" NumberOfComponents="1" format="ascii">
 1.847444588311345095e-05
 1.847444588311345095e-05
 1.847444588311345095e-05
 1.847444588311345095e-05
 1.847444588311345095e-05
 1.847444588311345095e-05
 1.847444588311345095e-05
 1.847444588311345095e-05
 1.847444588311345095e-05
 1.847444588311345095e-05
 1.847444588311345095e-05
 1.847444588311345095e-05
 1.847444588311345095e-05
 1.847444588311345095e-05
 1.847444588311345095e-05
 1.847444588311345095e-05
 1.847444588311345095e-05
 1.847444588311345095e-05
 1.847444588311345095e-05
 1.847444588311345095e-05
 1.847444588311345095e-05
 1.847444588311345095e-05
 1.847444588311345095e-05
 1.847444588311345095e-05
 </DataArray>
 <DataArray Name="k" type="Float32" NumberOfComponents="1" format="ascii">
 2.625219405453244753e-02
 2.625219405453244753e-02
 2.625219405453244753e-02
 2.625219405453244753e-02
 2.625219405453244753e-02
 2.625219405453244753e-02
 2.625219405453244753e-02
 2.625219405453244753e-02
 2.625219405453244753e-02
 2.625219405453244753e-02
 2.625219405453244753e-02
 2.625219405453244753e-02
 2.625219405453244753e-02
 2.625219405453244753e-02
 2.625219405453244753e-02
 2.625219405453244753e-02
 2.625219405453244753e-02
 2.625219405453244753e-02
 2.625219405453244753e-02
 2.625219405453244753e-02
 2.625219405453244753e-02
 2.625219405453244753e-02
 2.625219405453244753e-02
 2.625219405453244753e-02
 </DataArray>
 <DataArray Name="mu_t" type="Float32" NumberOfComponents="1" format="ascii">
 0.000000000000000000e+00
 0.000000000000000000e+00
 0.000000000000000000e+00
 0.000000000000000000e+00
 0.000000000000000000e+00
 0.000000000000000000e+00
 0.000000000000000000e+00
 0.000000000000000000e+00
 0.000000000000000000e+00
 0.000000000000000000e+00
 0.000000000000000000e+00
 0.000000000000000000e+00
 0.000000000000000000e+00
 0.000000000000000000e+00
 0.000000000000000000e+00
 0.000000000000000000e+00
 0.000000000000000000e+00
 0.000000000000000000e+00
 0.000000000000000000e+00
 0.000000000000000000e+00
 0.000000000000000000e+00
 0.000000000000000000e+00
 0.000000000000000000e+00
 0.000000000000000000e+00
 </DataArray>
 <DataArray Name="k_t" type="Float32" NumberOfComponents="1" format="ascii">
 0.000000000000000000e+00
 0.000000000000000000e+00
 0.000000000000000000e+00
 0.000000000000000000e+00
 0.000000000000000000e+00
 0.000000000000000000e+00
 0.000000000000000000e+00
 0.000000000000000000e+00
 0.000000000000000000e+00
 0.000000000000000000e+00
 0.000000000000000000e+00
 0.000000000000000000e+00
 0.000000000000000000e+00
 0.000000000000000000e+00
 0.000000000000000000e+00
 0.000000000000000000e+00
 0.000000000000000000e+00
 0.000000000000000000e+00
 0.000000000000000000e+00
 0.000000000000000000e+00
 0.000000000000000000e+00
 0.000000000000000000e+00
 0.000000000000000000e+00
 0.000000000000000000e+00
 </DataArray>
 <DataArray Name="S" type="Float32" NumberOfComponents="1" format="ascii">
 0.000000000000000000e+00
 0.000000000000000000e+00
 0.000000000000000000e+00
 0.000000000000000000e+00
 0.000000000000000000e+00
 0.000000000000000000e+00
 0.000000000000000000e+00
 0.000000000000000000e+00
 0.000000000000000000e+00
 0.000000000000000000e+00
 0.000000000000000000e+00
 0.000000000000000000e+00
 0.000000000000000000e+00
 0.000000000000000000e+00
 0.000000000000000000e+00
 0.000000000000000000e+00
 0.000000000000000000e+00
 0.000000000000000000e+00
 0.000000000000000000e+00
 0.000000000000000000e+00
 0.000000000000000000e+00
 0.000000000000000000e+00
 0.000000000000000000e+00
 0.000000000000000000e+00
 </DataArray>
 <DataArray Name="massf[0]-Ar" type="Float32" NumberOfComponents="1" format="ascii">
 0.000000000000000000e+00
 0.000000000000000000e+00
 0.000000000000000000e+00
 0.000000000000000000e+00
 0.000000000000000000e+00
 0.000000000000000000e+00
 0.000000000000000000e+00
 0.000000000000000000e+00
 0.000000000000000000e+00
 0.000000000000000000e+00
 0.000000000000000000e+00
 0.000000000000000000e+00
 0.000000000000000000e+00
 0.000000000000000000e+00
 0.000000000000000000e+00
 0.000000000000000000e+00
 0.000000000000000000e+00
 0.000000000000000000e+00
 0.000000000000000000e+00
 0.000000000000000000e+00
 0.000000000000000000e+00
 0.000000000000000000e+00
 0.000000000000000000e+00
 0.000000000000000000e+00
 </DataArray>
 <DataArray Name="massf[1]-He" type="Float32" NumberOfComponents="1" format="ascii">
 0.000000000000000000e+00
 0.000000000000000000e+00
 0.000000000000000000e+00
 0.000000000000000000e+00
 0.000000000000000000e+00
 0.000000000000000000e+00
 0.000000000000000000e+00
 0.000000000000000000e+00
 0.000000000000000000e+00
 0.000000000000000000e+00
 0.000000000000000000e+00
 0.000000000000000000e+00
 0.000000000000000000e+00
 0.000000000000000000e+00
 0.000000000000000000e+00
 0.000000000000000000e+00
 0.000000000000000000e+00
 0.000000000000000000e+00
 0.000000000000000000e+00
 0.000000000000000000e+00
 0.000000000000000000e+00
 0.000000000000000000e+00
 0.000000000000000000e+00
 0.000000000000000000e+00
 </DataArray>
 <DataArray Name="massf[2]-N" type="Float32" NumberOfComponents="1" format="ascii">
 0.000000000000000000e+00
 0.000000000000000000e+00
 0.000000000000000000e+00
 0.000000000000000000e+00
 0.000000000000000000e+00
 0.000000000000000000e+00
 0.000000000000000000e+00
 0.000000000000000000e+00
 0.000000000000000000e+00
 0.000000000000000000e+00
 0.000000000000000000e+00
 0.000000000000000000e+00
 0.000000000000000000e+00
 0.000000000000000000e+00
 0.000000000000000000e+00
 0.000000000000000000e+00
 0.000000000000000000e+00
 0.000000000000000000e+00
 0.000000000000000000e+00
 0.000000000000000000e+00
 0.000000000000000000e+00
 0.000000000000000000e+00
 0.000000000000000000e+00
 0.000000000000000000e+00
 </DataArray>
 <DataArray Name="massf[3]-N2" type="Float32" NumberOfComponents="1" format="ascii">
 7.778669428624583881e-01
 7.778669428624583881e-01
 7.778669428624583881e-01
 7.778669428624583881e-01
 7.778669428624583881e-01
 7.778669428624583881e-01
 7.778669428624583881e-01
 7.778669428624583881e-01
 7.778669428624583881e-01
 7.778669428624583881e-01
 7.778669428624583881e-01
 7.778669428624583881e-01
 7.778669428624583881e-01
 7.778669428624583881e-01
 7.778669428624583881e-01
 7.778669428624583881e-01
 7.778669428624583881e-01
 7.778669428624583881e-01
 7.778669428624583881e-01
 7.778669428624583881e-01
 7.778669428624583881e-01
 7.778669428624583881e-01
 7.778669428624583881e-01
 7.778669428624583881e-01
 </DataArray>
 <DataArray Name="massf[4]-NO" type="Float32" NumberOfComponents="1" format="ascii">
 0.000000000000000000e+00
 0.000000000000000000e+00
 0.000000000000000000e+00
 0.000000000000000000e+00
 0.000000000000000000e+00
 0.000000000000000000e+00
 0.000000000000000000e+00
 0.000000000000000000e+00
 0.000000000000000000e+00
 0.000000000000000000e+00
 0.000000000000000000e+00
 0.000000000000000000e+00
 0.000000000000000000e+00
 0.000000000000000000e+00
 0.000000000000000000e+00
 0.000000000000000000e+00
 0.000000000000000000e+00
 0.000000000000000000e+00
 0.000000000000000000e+00
 0.000000000000000000e+00
 0.000000000000000000e+00
 0.000000000000000000e+00
 0.000000000000000000e+00
 0.000000000000000000e+00
 </DataArray>
 <DataArray Name="massf[5]-O" type="Float32" NumberOfComponents="1" format="ascii">
 0.000000000000000000e+00
 0.000000000000000000e+00
 0.000000000000000000e+00
 0.000000000000000000e+00
 0.000000000000000000e+00
 0.000000000000000000e+00
 0.000000000000000000e+00
 0.000000000000000000e+00
 0.000000000000000000e+00
 0.000000000000000000e+00
 0.000000000000000000e+00
 0.000000000000000000e+00
 0.000000000000000000e+00
 0.000000000000000000e+00
 0.000000000000000000e+00
 0.000000000000000000e+00
 0.000000000000000000e+00
 0.000000000000000000e+00
 0.000000000000000000e+00
 0.000000000000000000e+00
 0.000000000000000000e+00
 0.000000000000000000e+00
 0.000000000000000000e+00
 0.000000000000000000e+00
 </DataArray>
 <DataArray Name="massf[6]-O2" type="Float32" NumberOfComponents="1" format="ascii">
 2.221330571375415841e-01
 2.221330571375415841e-01
 2.221330571375415841e-01
 2.221330571375415841e-01
 2.221330571375415841e-01
 2.221330571375415841e-01
 2.221330571375415841e-01
 2.221330571375415841e-01
 2.221330571375415841e-01
 2.221330571375415841e-01
 2.221330571375415841e-01
 2.221330571375415841e-01
 2.221330571375415841e-01
 2.221330571375415841e-01
 2.221330571375415841e-01
 2.221330571375415841e-01
 2.221330571375415841e-01
 2.221330571375415841e-01
 2.221330571375415841e-01
 2.221330571375415841e-01
 2.221330571375415841e-01
 2.221330571375415841e-01
 2.221330571375415841e-01
 2.221330571375415841e-01
 </DataArray>
 <DataArray Name="dt_chem" type="Float32" NumberOfComponents="1" format="ascii">
 -1.000000000000000000e+00
 -1.000000000000000000e+00
 -1.000000000000000000e+00
 -1.000000000000000000e+00
 -1.000000000000000000e+00
 -1.000000000000000000e+00
 -1.000000000000000000e+00
 -1.000000000000000000e+00
 -1.000000000000000000e+00
 -1.000000000000000000e+00
 -1.000000000000000000e+00
 -1.000000000000000000e+00
 -1.000000000000000000e+00
 -1.000000000000000000e+00
 -1.000000000000000000e+00
 -1.000000000000000000e+00
 -1.000000000000000000e+00
 -1.000000000000000000e+00
 -1.000000000000000000e+00
 -1.000000000000000000e+00
 -1.000000000000000000e+00
 -1.000000000000000000e+00
 -1.000000000000000000e+00
 -1.000000000000000000e+00
 </DataArray>
 <DataArray Name="u" type="Float32" NumberOfComponents="1" format="ascii">
 -8.470447781759938516e+04
 -8.470447781759938516e+04
 -8.470447781759938516e+04
 -8.470447781759938516e+04
 -8.470447781759938516e+04
 -8.470447781759938516e+04
 -8.470447781759938516e+04
 -8.470447781759938516e+04
 -8.470447781759938516e+04
 -8.470447781759938516e+04
 -8.470447781759938516e+04
 -8.470447781759938516e+04
 -8.470447781759938516e+04
 -8.470447781759938516e+04
 -8.470447781759938516e+04
 -8.470447781759938516e+04
 -8.470447781759938516e+04
 -8.470447781759938516e+04
 -8.470447781759938516e+04
 -8.470447781759938516e+04
 -8.470447781759938516e+04
 -8.470447781759938516e+04
 -8.470447781759938516e+04
 -8.470447781759938516e+04
 </DataArray>
 <DataArray Name="T" type="Float32" NumberOfComponents="1" format="ascii">
 3.000000000000000000e+02
 3.000000000000000000e+02
 3.000000000000000000e+02
 3.000000000000000000e+02
 3.000000000000000000e+02
 3.000000000000000000e+02
 3.000000000000000000e+02
 3.000000000000000000e+02
 3.000000000000000000e+02
 3.000000000000000000e+02
 3.000000000000000000e+02
 3.000000000000000000e+02
 3.000000000000000000e+02
 3.000000000000000000e+02
 3.000000000000000000e+02
 3.000000000000000000e+02
 3.000000000000000000e+02
 3.000000000000000000e+02
 3.000000000000000000e+02
 3.000000000000000000e+02
 3.000000000000000000e+02
 3.000000000000000000e+02
 3.000000000000000000e+02
 3.000000000000000000e+02
 </DataArray>
 <DataArray Name="vel.vector" type="Float32" NumberOfComponents="3" format="ascii">
 3.467253882009219135e-13 1.195385717495112132e-11 0.000000000000000000e+00
 4.935256305189927861e-13 -1.690445743454671579e-12 0.000000000000000000e+00
 6.377086358977379632e-13 4.312969426045754062e-11 0.000000000000000000e+00
 5.600092872065642879e-13 4.226668494367036288e-12 0.000000000000000000e+00
 4.827319100009219710e-13 -2.694206489850525799e-11 0.000000000000000000e+00
 5.213573713372388063e-13 9.002618962805630787e-12 0.000000000000000000e+00
 6.362278867806658855e-13 5.315459444127368371e-13 0.000000000000000000e+00
 5.606372571048678921e-13 1.400807941864812278e-11 0.000000000000000000e+00
 5.213594855314751531e-13 2.742865656824022835e-11 0.000000000000000000e+00
 3.242077017007877204e-13 -4.885406749283172090e-12 0.000000000000000000e+00
 5.775773332912861879e-14 -1.421637113585560996e-11 0.000000000000000000e+00
 1.899585733665647841e-14 2.172551027967983828e-11 0.000000000000000000e+00
 -1.935257103223911312e-13 -1.058453411723059290e-11 0.000000000000000000e+00
 -3.476414848265635404e-13 -1.946158338650416653e-11 0.000000000000000000e+00
 -4.752252194192840840e-13 1.602283236645796194e-11 0.000000000000000000e+00
 -6.162789462776929739e-13 -6.132779700740442763e-11 0.000000000000000000e+00
 -3.478071780235736377e-13 2.080425068329283533e-11 0.000000000000000000e+00
 -2.703754104285693849e-13 3.127120090651303030e-11 0.000000000000000000e+00
 -4.114778179645228740e-13 -4.289444147098642190e-11 0.000000000000000000e+00
 -2.121987346037287891e-13 3.650538552002480230e-11 0.000000000000000000e+00
 -2.897641707740733485e-13 -3.993312625016898210e-11 0.000000000000000000e+00
 -5.809645164034024645e-14 -2.617973112600813224e-12 0.000000000000000000e+00
 6.367405517779256563e-14 3.082682720201290749e-11 0.000000000000000000e+00
 3.891176863688415588e-14 -5.675032384126754703e-13 0.000000000000000000e+00
 </DataArray>
</CellData>
</Piece>
</UnstructuredGrid>
</VTKFile>
