<VTKFile type="UnstructuredGrid" byte_order="BigEndian">
<UnstructuredGrid><Piece NumberOfPoints="30" NumberOfCells="14">
<Points>
 <DataArray type="Float32" NumberOfComponents="3" format="ascii">
 8.905529022216796875e+00 0.000000000000000000e+00 0.000000000000000000e+00
 8.911856651306152344e+00 0.000000000000000000e+00 0.000000000000000000e+00
 8.918184280395507812e+00 0.000000000000000000e+00 0.000000000000000000e+00
 8.924512863159179688e+00 0.000000000000000000e+00 0.000000000000000000e+00
 8.930840492248535156e+00 0.000000000000000000e+00 0.000000000000000000e+00
 8.937168121337890625e+00 0.000000000000000000e+00 0.000000000000000000e+00
 8.943495750427246094e+00 0.000000000000000000e+00 0.000000000000000000e+00
 8.949824333190917969e+00 0.000000000000000000e+00 0.000000000000000000e+00
 8.956151962280273438e+00 0.000000000000000000e+00 0.000000000000000000e+00
 8.962479591369628906e+00 0.000000000000000000e+00 0.000000000000000000e+00
 8.968807220458984375e+00 0.000000000000000000e+00 0.000000000000000000e+00
 8.975135803222656250e+00 0.000000000000000000e+00 0.000000000000000000e+00
 8.981463432312011719e+00 0.000000000000000000e+00 0.000000000000000000e+00
 8.987791061401367188e+00 0.000000000000000000e+00 0.000000000000000000e+00
 8.994118690490722656e+00 0.000000000000000000e+00 0.000000000000000000e+00
 8.905529022216796875e+00 6.052099913358688354e-02 0.000000000000000000e+00
 8.911856651306152344e+00 6.091471388936042786e-02 0.000000000000000000e+00
 8.918184280395507812e+00 6.130842864513397217e-02 0.000000000000000000e+00
 8.924512863159179688e+00 6.170214340090751648e-02 0.000000000000000000e+00
 8.930840492248535156e+00 6.209585815668106079e-02 0.000000000000000000e+00
 8.937168121337890625e+00 6.248957291245460510e-02 0.000000000000000000e+00
 8.943495750427246094e+00 6.288328766822814941e-02 0.000000000000000000e+00
 8.949824333190917969e+00 6.327699869871139526e-02 0.000000000000000000e+00
 8.956151962280273438e+00 6.367071717977523804e-02 0.000000000000000000e+00
 8.962479591369628906e+00 6.406442821025848389e-02 0.000000000000000000e+00
 8.968807220458984375e+00 6.445813924074172974e-02 0.000000000000000000e+00
 8.975135803222656250e+00 6.485185772180557251e-02 0.000000000000000000e+00
 8.981463432312011719e+00 6.524556875228881836e-02 0.000000000000000000e+00
 8.987791061401367188e+00 6.563928723335266113e-02 0.000000000000000000e+00
 8.994118690490722656e+00 6.603299826383590698e-02 0.000000000000000000e+00
 </DataArray>
</Points>
<Cells>
 <DataArray type="Int32" Name="connectivity" format="ascii">
 0 1 16 15
 1 2 17 16
 2 3 18 17
 3 4 19 18
 4 5 20 19
 5 6 21 20
 6 7 22 21
 7 8 23 22
 8 9 24 23
 9 10 25 24
 10 11 26 25
 11 12 27 26
 12 13 28 27
 13 14 29 28
 </DataArray>
 <DataArray type="Int32" Name="offsets" format="ascii">
 4
 8
 12
 16
 20
 24
 28
 32
 36
 40
 44
 48
 52
 56
 </DataArray>
 <DataArray type="UInt8" Name="types" format="ascii">
 9
 9
 9
 9
 9
 9
 9
 9
 9
 9
 9
 9
 9
 9
 </DataArray>
</Cells>
<CellData>
 <DataArray Name="pos.x" type="Float32" NumberOfComponents="1" format="ascii">
 8.908696347897269163e+00
 8.915024183008766201e+00
 8.921352018404475004e+00
 8.927679854076691512e+00
 8.934007690016867897e+00
 8.940335526232004781e+00
 8.946663362698553001e+00
 8.952991199430094582e+00
 8.959319036409954862e+00
 8.965646873634295133e+00
 8.971974711103975153e+00
 8.978302548812450823e+00
 8.984630386753130082e+00
 8.990958224922890096e+00
 </DataArray>
 <DataArray Name="pos.y" type="Float32" NumberOfComponents="1" format="ascii">
 3.035903494523598672e-02
 3.055589140276612423e-02
 3.075274786907929506e-02
 3.094960434399878293e-02
 3.114646082735255880e-02
 3.134331731900820428e-02
 3.154017381877532999e-02
 3.173703032653778233e-02
 3.193388684212170731e-02
 3.213074336538318532e-02
 3.232759989619966162e-02
 3.252445643443318407e-02
 3.272131297992462995e-02
 3.291816953256949951e-02
 </DataArray>
 <DataArray Name="pos.z" type="Float32" NumberOfComponents="1" format="ascii">
 0.000000000000000000e+00
 0.000000000000000000e+00
 0.000000000000000000e+00
 0.000000000000000000e+00
 0.000000000000000000e+00
 0.000000000000000000e+00
 0.000000000000000000e+00
 0.000000000000000000e+00
 0.000000000000000000e+00
 0.000000000000000000e+00
 0.000000000000000000e+00
 0.000000000000000000e+00
 0.000000000000000000e+00
 0.000000000000000000e+00
 </DataArray>
 <DataArray Name="volume" type="Float32" NumberOfComponents="1" format="ascii">
 1.166436400649607306e-05
 1.181612496148206980e-05
 1.196886680353758539e-05
 1.212258953266915722e-05
 1.227729314888713433e-05
 1.243297765217097111e-05
 1.258964304253440641e-05
 1.274728931997399114e-05
 1.290591648448972697e-05
 1.306552453608161391e-05
 1.322611347475337212e-05
 1.338768330049385127e-05
 1.355023401331419323e-05
 1.371376561321068630e-05
 </DataArray>
 <DataArray Name="rho" type="Float32" NumberOfComponents="1" format="ascii">
 1.528855304762397147e-04
 1.528855304762397147e-04
 1.528855304762397147e-04
 1.528855304762397147e-04
 1.528855304762397147e-04
 1.528855304762397147e-04
 1.528855304762397147e-04
 1.528855304762397147e-04
 1.528855304762397147e-04
 1.528855304762397147e-04
 1.528855304762397147e-04
 1.528855304762397147e-04
 1.528855304762397147e-04
 1.528855304762397147e-04
 </DataArray>
 <DataArray Name="vel.x" type="Float32" NumberOfComponents="1" format="ascii">
 -1.716465095042638385e-12
 -5.482175948872782093e-13
 5.206168747428878606e-13
 1.585533246108940650e-12
 3.061012871064126156e-12
 3.705563556068993301e-12
 4.668655622919242032e-12
 4.704807871162748325e-12
 5.183309470759830330e-12
 6.159436988075177023e-12
 6.463167870549970455e-12
 6.212055089702634629e-12
 6.578591890732272888e-12
 6.433372179001862366e-12
 </DataArray>
 <DataArray Name="vel.y" type="Float32" NumberOfComponents="1" format="ascii">
 -7.129831785524326389e-11
 -3.756440777486356832e-13
 -5.129315932038934892e-12
 -8.433333192004409396e-12
 6.010639951039602427e-11
 -1.286891352030531094e-11
 5.348536249786111373e-11
 -1.827412326363677270e-11
 -2.097836072910307221e-11
 4.446544586571139964e-11
 3.922110410531413996e-11
 -2.843178890307947804e-11
 3.560679263621711142e-11
 3.286390840190043872e-11
 </DataArray>
 <DataArray Name="vel.z" type="Float32" NumberOfComponents="1" format="ascii">
 0.000000000000000000e+00
 0.000000000000000000e+00
 0.000000000000000000e+00
 0.000000000000000000e+00
 0.000000000000000000e+00
 0.000000000000000000e+00
 0.000000000000000000e+00
 0.000000000000000000e+00
 0.000000000000000000e+00
 0.000000000000000000e+00
 0.000000000000000000e+00
 0.000000000000000000e+00
 0.000000000000000000e+00
 0.000000000000000000e+00
 </DataArray>
 <DataArray Name="p" type="Float32" NumberOfComponents="1" format="ascii">
 1.319999999999999929e+01
 1.319999999999999041e+01
 1.319999999999998863e+01
 1.319999999999998330e+01
 1.319999999999999929e+01
 1.319999999999999929e+01
 1.319999999999999929e+01
 1.319999999999999929e+01
 1.319999999999999929e+01
 1.319999999999999929e+01
 1.319999999999999929e+01
 1.319999999999999929e+01
 1.319999999999999929e+01
 1.319999999999999929e+01
 </DataArray>
 <DataArray Name="a" type="Float32" NumberOfComponents="1" format="ascii">
 3.474749704973453390e+02
 3.474749704973451685e+02
 3.474749704973451685e+02
 3.474749704973451117e+02
 3.474749704973453390e+02
 3.474749704973453390e+02
 3.474749704973453390e+02
 3.474749704973453390e+02
 3.474749704973453390e+02
 3.474749704973453390e+02
 3.474749704973453390e+02
 3.474749704973453390e+02
 3.474749704973453390e+02
 3.474749704973453390e+02
 </DataArray>
 <DataArray Name="mu" type="Float32" NumberOfComponents="1" format="ascii">
 1.853126952258717352e-05
 1.853126952258717352e-05
 1.853126952258717352e-05
 1.853126952258717352e-05
 1.853126952258717352e-05
 1.853126952258717352e-05
 1.853126952258717352e-05
 1.853126952258717352e-05
 1.853126952258717352e-05
 1.853126952258717352e-05
 1.853126952258717352e-05
 1.853126952258717352e-05
 1.853126952258717352e-05
 1.853126952258717352e-05
 </DataArray>
 <DataArray Name="k" type="Float32" NumberOfComponents="1" format="ascii">
 2.626199291280435430e-02
 2.626199291280435430e-02
 2.626199291280435430e-02
 2.626199291280435430e-02
 2.626199291280435430e-02
 2.626199291280435430e-02
 2.626199291280435430e-02
 2.626199291280435430e-02
 2.626199291280435430e-02
 2.626199291280435430e-02
 2.626199291280435430e-02
 2.626199291280435430e-02
 2.626199291280435430e-02
 2.626199291280435430e-02
 </DataArray>
 <DataArray Name="mu_t" type="Float32" NumberOfComponents="1" format="ascii">
 0.000000000000000000e+00
 0.000000000000000000e+00
 0.000000000000000000e+00
 0.000000000000000000e+00
 0.000000000000000000e+00
 0.000000000000000000e+00
 0.000000000000000000e+00
 0.000000000000000000e+00
 0.000000000000000000e+00
 0.000000000000000000e+00
 0.000000000000000000e+00
 0.000000000000000000e+00
 0.000000000000000000e+00
 0.000000000000000000e+00
 </DataArray>
 <DataArray Name="k_t" type="Float32" NumberOfComponents="1" format="ascii">
 0.000000000000000000e+00
 0.000000000000000000e+00
 0.000000000000000000e+00
 0.000000000000000000e+00
 0.000000000000000000e+00
 0.000000000000000000e+00
 0.000000000000000000e+00
 0.000000000000000000e+00
 0.000000000000000000e+00
 0.000000000000000000e+00
 0.000000000000000000e+00
 0.000000000000000000e+00
 0.000000000000000000e+00
 0.000000000000000000e+00
 </DataArray>
 <DataArray Name="S" type="Float32" NumberOfComponents="1" format="ascii">
 0.000000000000000000e+00
 0.000000000000000000e+00
 0.000000000000000000e+00
 0.000000000000000000e+00
 0.000000000000000000e+00
 0.000000000000000000e+00
 0.000000000000000000e+00
 0.000000000000000000e+00
 0.000000000000000000e+00
 0.000000000000000000e+00
 0.000000000000000000e+00
 0.000000000000000000e+00
 0.000000000000000000e+00
 0.000000000000000000e+00
 </DataArray>
 <DataArray Name="massf[0]-Ar" type="Float32" NumberOfComponents="1" format="ascii">
 0.000000000000000000e+00
 0.000000000000000000e+00
 0.000000000000000000e+00
 0.000000000000000000e+00
 0.000000000000000000e+00
 0.000000000000000000e+00
 0.000000000000000000e+00
 0.000000000000000000e+00
 0.000000000000000000e+00
 0.000000000000000000e+00
 0.000000000000000000e+00
 0.000000000000000000e+00
 0.000000000000000000e+00
 0.000000000000000000e+00
 </DataArray>
 <DataArray Name="massf[1]-He" type="Float32" NumberOfComponents="1" format="ascii">
 0.000000000000000000e+00
 0.000000000000000000e+00
 0.000000000000000000e+00
 0.000000000000000000e+00
 0.000000000000000000e+00
 0.000000000000000000e+00
 0.000000000000000000e+00
 0.000000000000000000e+00
 0.000000000000000000e+00
 0.000000000000000000e+00
 0.000000000000000000e+00
 0.000000000000000000e+00
 0.000000000000000000e+00
 0.000000000000000000e+00
 </DataArray>
 <DataArray Name="massf[2]-N" type="Float32" NumberOfComponents="1" format="ascii">
 0.000000000000000000e+00
 0.000000000000000000e+00
 0.000000000000000000e+00
 0.000000000000000000e+00
 0.000000000000000000e+00
 0.000000000000000000e+00
 0.000000000000000000e+00
 0.000000000000000000e+00
 0.000000000000000000e+00
 0.000000000000000000e+00
 0.000000000000000000e+00
 0.000000000000000000e+00
 0.000000000000000000e+00
 0.000000000000000000e+00
 </DataArray>
 <DataArray Name="massf[3]-N2" type="Float32" NumberOfComponents="1" format="ascii">
 7.563277885211407980e-01
 7.563277885211394658e-01
 7.563277885211381335e-01
 7.563277885211349139e-01
 7.563277885211407980e-01
 7.563277885211407980e-01
 7.563277885211407980e-01
 7.563277885211407980e-01
 7.563277885211407980e-01
 7.563277885211407980e-01
 7.563277885211407980e-01
 7.563277885211407980e-01
 7.563277885211407980e-01
 7.563277885211407980e-01
 </DataArray>
 <DataArray Name="massf[4]-NO" type="Float32" NumberOfComponents="1" format="ascii">
 0.000000000000000000e+00
 0.000000000000000000e+00
 0.000000000000000000e+00
 0.000000000000000000e+00
 0.000000000000000000e+00
 0.000000000000000000e+00
 0.000000000000000000e+00
 0.000000000000000000e+00
 0.000000000000000000e+00
 0.000000000000000000e+00
 0.000000000000000000e+00
 0.000000000000000000e+00
 0.000000000000000000e+00
 0.000000000000000000e+00
 </DataArray>
 <DataArray Name="massf[5]-O" type="Float32" NumberOfComponents="1" format="ascii">
 0.000000000000000000e+00
 0.000000000000000000e+00
 0.000000000000000000e+00
 0.000000000000000000e+00
 0.000000000000000000e+00
 0.000000000000000000e+00
 0.000000000000000000e+00
 0.000000000000000000e+00
 0.000000000000000000e+00
 0.000000000000000000e+00
 0.000000000000000000e+00
 0.000000000000000000e+00
 0.000000000000000000e+00
 0.000000000000000000e+00
 </DataArray>
 <DataArray Name="massf[6]-O2" type="Float32" NumberOfComponents="1" format="ascii">
 2.436722114788592020e-01
 2.436722114788604232e-01
 2.436722114788617555e-01
 2.436722114788649474e-01
 2.436722114788592020e-01
 2.436722114788592020e-01
 2.436722114788592020e-01
 2.436722114788592020e-01
 2.436722114788592020e-01
 2.436722114788592020e-01
 2.436722114788592020e-01
 2.436722114788592020e-01
 2.436722114788592020e-01
 2.436722114788592020e-01
 </DataArray>
 <DataArray Name="dt_chem" type="Float32" NumberOfComponents="1" format="ascii">
 -1.000000000000000000e+00
 -1.000000000000000000e+00
 -1.000000000000000000e+00
 -1.000000000000000000e+00
 -1.000000000000000000e+00
 -1.000000000000000000e+00
 -1.000000000000000000e+00
 -1.000000000000000000e+00
 -1.000000000000000000e+00
 -1.000000000000000000e+00
 -1.000000000000000000e+00
 -1.000000000000000000e+00
 -1.000000000000000000e+00
 -1.000000000000000000e+00
 </DataArray>
 <DataArray Name="u" type="Float32" NumberOfComponents="1" format="ascii">
 -8.447044764501467580e+04
 -8.447044764501469035e+04
 -8.447044764501467580e+04
 -8.447044764501469035e+04
 -8.447044764501467580e+04
 -8.447044764501467580e+04
 -8.447044764501467580e+04
 -8.447044764501467580e+04
 -8.447044764501467580e+04
 -8.447044764501467580e+04
 -8.447044764501467580e+04
 -8.447044764501467580e+04
 -8.447044764501467580e+04
 -8.447044764501467580e+04
 </DataArray>
 <DataArray Name="T" type="Float32" NumberOfComponents="1" format="ascii">
 3.000000000000000000e+02
 2.999999999999999432e+02
 2.999999999999999432e+02
 2.999999999999998863e+02
 3.000000000000000000e+02
 3.000000000000000000e+02
 3.000000000000000000e+02
 3.000000000000000000e+02
 3.000000000000000000e+02
 3.000000000000000000e+02
 3.000000000000000000e+02
 3.000000000000000000e+02
 3.000000000000000000e+02
 3.000000000000000000e+02
 </DataArray>
 <DataArray Name="vel.vector" type="Float32" NumberOfComponents="3" format="ascii">
 -1.716465077711282206e-12 -7.129831447461043581e-11 0.000000000000000000e+00
 -5.482176127988291903e-13 -3.756440688021389640e-13 0.000000000000000000e+00
 5.206168612534312068e-13 -5.129315808899415075e-12 0.000000000000000000e+00
 1.585533245494763488e-12 -8.433333024970846026e-12 0.000000000000000000e+00
 3.061012814747909871e-12 6.010639902465086948e-11 0.000000000000000000e+00
 3.705563633715769356e-12 -1.286891340018803120e-11 0.000000000000000000e+00
 4.668655653045084009e-12 5.348536197269382342e-11 0.000000000000000000e+00
 4.704807723965309663e-12 -1.827412353383461863e-11 0.000000000000000000e+00
 5.183309510770062190e-12 -2.097836140912967551e-11 0.000000000000000000e+00
 6.159437109659604559e-12 4.446544521474748990e-11 0.000000000000000000e+00
 6.463167674664038742e-12 3.922110553000734967e-11 0.000000000000000000e+00
 6.212055175813802066e-12 -2.843178817379943268e-11 0.000000000000000000e+00
 6.578591837946845544e-12 3.560679182057491232e-11 0.000000000000000000e+00
 6.433372064240661103e-12 3.286390951040552011e-11 0.000000000000000000e+00
 </DataArray>
</CellData>
</Piece>
</UnstructuredGrid>
</VTKFile>
