<VTKFile type="UnstructuredGrid" byte_order="BigEndian">
<UnstructuredGrid><Piece NumberOfPoints="30" NumberOfCells="14">
<Points>
 <DataArray type="Float32" NumberOfComponents="3" format="ascii">
 -1.053333356976509094e-01 0.000000000000000000e+00 0.000000000000000000e+00
 -9.914285689592361450e-02 0.000000000000000000e+00 0.000000000000000000e+00
 -9.295237809419631958e-02 0.000000000000000000e+00 0.000000000000000000e+00
 -8.676190674304962158e-02 0.000000000000000000e+00 0.000000000000000000e+00
 -8.057142794132232666e-02 0.000000000000000000e+00 0.000000000000000000e+00
 -7.438094913959503174e-02 0.000000000000000000e+00 0.000000000000000000e+00
 -6.819047778844833374e-02 0.000000000000000000e+00 0.000000000000000000e+00
 -6.199999898672103882e-02 0.000000000000000000e+00 0.000000000000000000e+00
 -5.580952391028404236e-02 0.000000000000000000e+00 0.000000000000000000e+00
 -4.961904883384704590e-02 0.000000000000000000e+00 0.000000000000000000e+00
 -4.342857003211975098e-02 0.000000000000000000e+00 0.000000000000000000e+00
 -3.723809495568275452e-02 0.000000000000000000e+00 0.000000000000000000e+00
 -3.104761987924575806e-02 0.000000000000000000e+00 0.000000000000000000e+00
 -2.485714294016361237e-02 0.000000000000000000e+00 0.000000000000000000e+00
 -1.866666600108146667e-02 0.000000000000000000e+00 0.000000000000000000e+00
 -1.053333356976509094e-01 4.250000044703483582e-02 0.000000000000000000e+00
 -9.914285689592361450e-02 4.250000044703483582e-02 0.000000000000000000e+00
 -9.295237809419631958e-02 4.250000044703483582e-02 0.000000000000000000e+00
 -8.676190674304962158e-02 4.250000044703483582e-02 0.000000000000000000e+00
 -8.057142794132232666e-02 4.250000044703483582e-02 0.000000000000000000e+00
 -7.438094913959503174e-02 4.250000044703483582e-02 0.000000000000000000e+00
 -6.819047778844833374e-02 4.250000044703483582e-02 0.000000000000000000e+00
 -6.199999898672103882e-02 4.250000044703483582e-02 0.000000000000000000e+00
 -5.580952391028404236e-02 4.250000044703483582e-02 0.000000000000000000e+00
 -4.961904883384704590e-02 4.250000044703483582e-02 0.000000000000000000e+00
 -4.342857003211975098e-02 4.250000044703483582e-02 0.000000000000000000e+00
 -3.723809495568275452e-02 4.250000044703483582e-02 0.000000000000000000e+00
 -3.104761987924575806e-02 4.250000044703483582e-02 0.000000000000000000e+00
 -2.485714294016361237e-02 4.250000044703483582e-02 0.000000000000000000e+00
 -1.866666600108146667e-02 4.250000044703483582e-02 0.000000000000000000e+00
 </DataArray>
</Points>
<Cells>
 <DataArray type="Int32" Name="connectivity" format="ascii">
 0 1 16 15
 1 2 17 16
 2 3 18 17
 3 4 19 18
 4 5 20 19
 5 6 21 20
 6 7 22 21
 7 8 23 22
 8 9 24 23
 9 10 25 24
 10 11 26 25
 11 12 27 26
 12 13 28 27
 13 14 29 28
 </DataArray>
 <DataArray type="Int32" Name="offsets" format="ascii">
 4
 8
 12
 16
 20
 24
 28
 32
 36
 40
 44
 48
 52
 56
 </DataArray>
 <DataArray type="UInt8" Name="types" format="ascii">
 9
 9
 9
 9
 9
 9
 9
 9
 9
 9
 9
 9
 9
 9
 </DataArray>
</Cells>
<CellData>
 <DataArray Name="pos.x" type="Float32" NumberOfComponents="1" format="ascii">
 -1.022380952380955166e-01
 -9.604761904761913160e-02
 -8.985714285714277438e-02
 -8.366666666666656982e-02
 -7.747619047619040689e-02
 -7.128571428571425783e-02
 -6.509523809523817817e-02
 -5.890476190476190421e-02
 -5.271428571428565801e-02
 -4.652380952380957835e-02
 -4.033333333333332521e-02
 -3.414285714285714146e-02
 -2.795238095238094730e-02
 -2.176190476190477396e-02
 </DataArray>
 <DataArray Name="pos.y" type="Float32" NumberOfComponents="1" format="ascii">
 2.125000000000005704e-02
 2.124999999999999459e-02
 2.124999999999999806e-02
 2.124999999999998071e-02
 2.124999999999999112e-02
 2.124999999999999459e-02
 2.125000000000000500e-02
 2.125000000000000500e-02
 2.124999999999998418e-02
 2.125000000000000847e-02
 2.125000000000001193e-02
 2.124999999999999112e-02
 2.125000000000000153e-02
 2.125000000000000500e-02
 </DataArray>
 <DataArray Name="pos.z" type="Float32" NumberOfComponents="1" format="ascii">
 0.000000000000000000e+00
 0.000000000000000000e+00
 0.000000000000000000e+00
 0.000000000000000000e+00
 0.000000000000000000e+00
 0.000000000000000000e+00
 0.000000000000000000e+00
 0.000000000000000000e+00
 0.000000000000000000e+00
 0.000000000000000000e+00
 0.000000000000000000e+00
 0.000000000000000000e+00
 0.000000000000000000e+00
 0.000000000000000000e+00
 </DataArray>
 <DataArray Name="volume" type="Float32" NumberOfComponents="1" format="ascii">
 5.590773809523795937e-06
 5.590773809523797631e-06
 5.590773809523835748e-06
 5.590773809523812878e-06
 5.590773809523824736e-06
 5.590773809523797631e-06
 5.590773809523810337e-06
 5.590773809523810337e-06
 5.590773809523804408e-06
 5.590773809523796784e-06
 5.590773809523829819e-06
 5.590773809523801867e-06
 5.590773809523813725e-06
 5.590773809523817113e-06
 </DataArray>
 <DataArray Name="rho" type="Float32" NumberOfComponents="1" format="ascii">
 3.182108000379948454e+00
 3.101657599792293496e+00
 3.097297750296159613e+00
 3.096538459365433482e+00
 3.095976154111150791e+00
 3.095438141995741077e+00
 3.094904849494359844e+00
 3.094372634028205393e+00
 3.093840563418708278e+00
 3.093308782539525126e+00
 3.092778581201864441e+00
 3.092252533773666823e+00
 3.091733991092108891e+00
 3.091350526828106737e+00
 </DataArray>
 <DataArray Name="vel.x" type="Float32" NumberOfComponents="1" format="ascii">
 6.429688976895236010e+02
 6.918457049775212226e+02
 6.972346054019840267e+02
 7.005662883610926883e+02
 7.038032047470796897e+02
 7.070347569707660114e+02
 7.102699232037679167e+02
 7.135096887164381769e+02
 7.167534752694936060e+02
 7.200002579849482345e+02
 7.232488493826920148e+02
 7.264980296383984069e+02
 7.297464737968126656e+02
 7.330360765720644167e+02
 </DataArray>
 <DataArray Name="vel.y" type="Float32" NumberOfComponents="1" format="ascii">
 -1.308565535845538363e+02
 -5.830627379492058537e+01
 -2.596075119332676095e+01
 -1.156850173927034753e+01
 -5.164249664108249149e+00
 -2.310442573273011391e+00
 -1.036154715156114348e+00
 -4.658352057989767481e-01
 -2.099584621988485056e-01
 -9.487071564256376044e-02
 -4.297610103889309280e-02
 -1.951696833587755059e-02
 -8.885461883881111411e-03
 -4.055185769667945909e-03
 </DataArray>
 <DataArray Name="vel.z" type="Float32" NumberOfComponents="1" format="ascii">
 0.000000000000000000e+00
 0.000000000000000000e+00
 0.000000000000000000e+00
 0.000000000000000000e+00
 0.000000000000000000e+00
 0.000000000000000000e+00
 0.000000000000000000e+00
 0.000000000000000000e+00
 0.000000000000000000e+00
 0.000000000000000000e+00
 0.000000000000000000e+00
 0.000000000000000000e+00
 0.000000000000000000e+00
 0.000000000000000000e+00
 </DataArray>
 <DataArray Name="p" type="Float32" NumberOfComponents="1" format="ascii">
 1.716418943970510364e+07
 1.669893812399879843e+07
 1.667314191182168759e+07
 1.666709380811611377e+07
 1.666186010846153088e+07
 1.665664488505393080e+07
 1.665138348293292150e+07
 1.664607786989679001e+07
 1.664074264883310348e+07
 1.663539578704326041e+07
 1.663005605299485661e+07
 1.662474170040656440e+07
 1.661946690059066750e+07
 1.661486527218629792e+07
 </DataArray>
 <DataArray Name="a" type="Float32" NumberOfComponents="1" format="ascii">
 2.998324038553426362e+03
 2.995517602356811949e+03
 2.995308918367097704e+03
 2.995132747273562472e+03
 2.994934393398891643e+03
 2.994725863817511254e+03
 2.994510811657662089e+03
 2.994291172498142259e+03
 2.994068707962870576e+03
 2.993844962669250890e+03
 2.993621000793271378e+03
 2.993397219845514883e+03
 2.993173274990702339e+03
 2.992944480168719565e+03
 </DataArray>
 <DataArray Name="mu" type="Float32" NumberOfComponents="1" format="ascii">
 1.064223939492820554e-04
 1.064223939492820554e-04
 1.064223939492820554e-04
 1.064223939492820554e-04
 1.064223939492820554e-04
 1.064223939492820554e-04
 1.064223939492820554e-04
 1.064223939492820554e-04
 1.064223939492820554e-04
 1.064223939492820554e-04
 1.064223939492820554e-04
 1.064223939492820554e-04
 1.064223939492820554e-04
 1.064223939492820554e-04
 </DataArray>
 <DataArray Name="k" type="Float32" NumberOfComponents="1" format="ascii">
 8.304462020313038151e-01
 8.304462020313038151e-01
 8.304462020313038151e-01
 8.304462020313038151e-01
 8.304462020313038151e-01
 8.304462020313038151e-01
 8.304462020313038151e-01
 8.304462020313038151e-01
 8.304462020313038151e-01
 8.304462020313038151e-01
 8.304462020313038151e-01
 8.304462020313038151e-01
 8.304462020313038151e-01
 8.304462020313038151e-01
 </DataArray>
 <DataArray Name="mu_t" type="Float32" NumberOfComponents="1" format="ascii">
 0.000000000000000000e+00
 0.000000000000000000e+00
 0.000000000000000000e+00
 0.000000000000000000e+00
 0.000000000000000000e+00
 0.000000000000000000e+00
 0.000000000000000000e+00
 0.000000000000000000e+00
 0.000000000000000000e+00
 0.000000000000000000e+00
 0.000000000000000000e+00
 0.000000000000000000e+00
 0.000000000000000000e+00
 0.000000000000000000e+00
 </DataArray>
 <DataArray Name="k_t" type="Float32" NumberOfComponents="1" format="ascii">
 0.000000000000000000e+00
 0.000000000000000000e+00
 0.000000000000000000e+00
 0.000000000000000000e+00
 0.000000000000000000e+00
 0.000000000000000000e+00
 0.000000000000000000e+00
 0.000000000000000000e+00
 0.000000000000000000e+00
 0.000000000000000000e+00
 0.000000000000000000e+00
 0.000000000000000000e+00
 0.000000000000000000e+00
 0.000000000000000000e+00
 </DataArray>
 <DataArray Name="S" type="Float32" NumberOfComponents="1" format="ascii">
 0.000000000000000000e+00
 0.000000000000000000e+00
 0.000000000000000000e+00
 0.000000000000000000e+00
 0.000000000000000000e+00
 0.000000000000000000e+00
 0.000000000000000000e+00
 0.000000000000000000e+00
 0.000000000000000000e+00
 0.000000000000000000e+00
 0.000000000000000000e+00
 0.000000000000000000e+00
 0.000000000000000000e+00
 0.000000000000000000e+00
 </DataArray>
 <DataArray Name="massf[0]-Ar" type="Float32" NumberOfComponents="1" format="ascii">
 0.000000000000000000e+00
 0.000000000000000000e+00
 0.000000000000000000e+00
 0.000000000000000000e+00
 0.000000000000000000e+00
 0.000000000000000000e+00
 0.000000000000000000e+00
 0.000000000000000000e+00
 0.000000000000000000e+00
 0.000000000000000000e+00
 0.000000000000000000e+00
 0.000000000000000000e+00
 0.000000000000000000e+00
 0.000000000000000000e+00
 </DataArray>
 <DataArray Name="massf[1]-He" type="Float32" NumberOfComponents="1" format="ascii">
 9.999999999999998890e-01
 1.000000000000000000e+00
 1.000000000000000000e+00
 9.999999999999998890e-01
 1.000000000000000000e+00
 1.000000000000000000e+00
 1.000000000000000222e+00
 1.000000000000000000e+00
 1.000000000000000000e+00
 1.000000000000000000e+00
 1.000000000000000000e+00
 1.000000000000000000e+00
 1.000000000000000000e+00
 1.000000000000000000e+00
 </DataArray>
 <DataArray Name="massf[2]-N" type="Float32" NumberOfComponents="1" format="ascii">
 0.000000000000000000e+00
 0.000000000000000000e+00
 0.000000000000000000e+00
 0.000000000000000000e+00
 0.000000000000000000e+00
 0.000000000000000000e+00
 0.000000000000000000e+00
 0.000000000000000000e+00
 0.000000000000000000e+00
 0.000000000000000000e+00
 0.000000000000000000e+00
 0.000000000000000000e+00
 0.000000000000000000e+00
 0.000000000000000000e+00
 </DataArray>
 <DataArray Name="massf[3]-N2" type="Float32" NumberOfComponents="1" format="ascii">
 0.000000000000000000e+00
 0.000000000000000000e+00
 0.000000000000000000e+00
 0.000000000000000000e+00
 0.000000000000000000e+00
 0.000000000000000000e+00
 0.000000000000000000e+00
 0.000000000000000000e+00
 0.000000000000000000e+00
 0.000000000000000000e+00
 0.000000000000000000e+00
 0.000000000000000000e+00
 0.000000000000000000e+00
 0.000000000000000000e+00
 </DataArray>
 <DataArray Name="massf[4]-NO" type="Float32" NumberOfComponents="1" format="ascii">
 0.000000000000000000e+00
 0.000000000000000000e+00
 0.000000000000000000e+00
 0.000000000000000000e+00
 0.000000000000000000e+00
 0.000000000000000000e+00
 0.000000000000000000e+00
 0.000000000000000000e+00
 0.000000000000000000e+00
 0.000000000000000000e+00
 0.000000000000000000e+00
 0.000000000000000000e+00
 0.000000000000000000e+00
 0.000000000000000000e+00
 </DataArray>
 <DataArray Name="massf[5]-O" type="Float32" NumberOfComponents="1" format="ascii">
 0.000000000000000000e+00
 0.000000000000000000e+00
 0.000000000000000000e+00
 0.000000000000000000e+00
 0.000000000000000000e+00
 0.000000000000000000e+00
 0.000000000000000000e+00
 0.000000000000000000e+00
 0.000000000000000000e+00
 0.000000000000000000e+00
 0.000000000000000000e+00
 0.000000000000000000e+00
 0.000000000000000000e+00
 0.000000000000000000e+00
 </DataArray>
 <DataArray Name="massf[6]-O2" type="Float32" NumberOfComponents="1" format="ascii">
 0.000000000000000000e+00
 0.000000000000000000e+00
 0.000000000000000000e+00
 0.000000000000000000e+00
 0.000000000000000000e+00
 0.000000000000000000e+00
 0.000000000000000000e+00
 0.000000000000000000e+00
 0.000000000000000000e+00
 0.000000000000000000e+00
 0.000000000000000000e+00
 0.000000000000000000e+00
 0.000000000000000000e+00
 0.000000000000000000e+00
 </DataArray>
 <DataArray Name="dt_chem" type="Float32" NumberOfComponents="1" format="ascii">
 -1.000000000000000000e+00
 -1.000000000000000000e+00
 -1.000000000000000000e+00
 -1.000000000000000000e+00
 -1.000000000000000000e+00
 -1.000000000000000000e+00
 -1.000000000000000000e+00
 -1.000000000000000000e+00
 -1.000000000000000000e+00
 -1.000000000000000000e+00
 -1.000000000000000000e+00
 -1.000000000000000000e+00
 -1.000000000000000000e+00
 -1.000000000000000000e+00
 </DataArray>
 <DataArray Name="u" type="Float32" NumberOfComponents="1" format="ascii">
 6.542602564864321612e+06
 6.527463364140274003e+06
 6.526338193518245593e+06
 6.525388385125151835e+06
 6.524319047400949523e+06
 6.523194928189504892e+06
 6.522035729734888300e+06
 6.520851891843988560e+06
 6.519652913915930316e+06
 6.518447123163766228e+06
 6.517240255465182476e+06
 6.516034452914693393e+06
 6.514827857420430519e+06
 6.513595223948891275e+06
 </DataArray>
 <DataArray Name="T" type="Float32" NumberOfComponents="1" format="ascii">
 2.596654282900701219e+03
 2.591795612528346282e+03
 2.591434508050987461e+03
 2.591129683114516411e+03
 2.590786497261225122e+03
 2.590425730216306420e+03
 2.590053705081704265e+03
 2.589673772336837828e+03
 2.589288980653157978e+03
 2.588902002508830265e+03
 2.588514678736765745e+03
 2.588127696805966480e+03
 2.587740460393275043e+03
 2.587344867532242915e+03
 </DataArray>
 <DataArray Name="vel.vector" type="Float32" NumberOfComponents="3" format="ascii">
 6.429688720703125000e+02 -1.308565521240234375e+02 0.000000000000000000e+00
 6.918457031250000000e+02 -5.830627441406250000e+01 0.000000000000000000e+00
 6.972346191406250000e+02 -2.596075057983398438e+01 0.000000000000000000e+00
 7.005662841796875000e+02 -1.156850147247314453e+01 0.000000000000000000e+00
 7.038032226562500000e+02 -5.164249897003173828e+00 0.000000000000000000e+00
 7.070347290039062500e+02 -2.310442686080932617e+00 0.000000000000000000e+00
 7.102698974609375000e+02 -1.036154747009277344e+00 0.000000000000000000e+00
 7.135097045898437500e+02 -4.658352136611938477e-01 0.000000000000000000e+00
 7.167534790039062500e+02 -2.099584639072418213e-01 0.000000000000000000e+00
 7.200002441406250000e+02 -9.487071633338928223e-02 0.000000000000000000e+00
 7.232488403320312500e+02 -4.297609999775886536e-02 0.000000000000000000e+00
 7.264980468750000000e+02 -1.951696909964084625e-02 0.000000000000000000e+00
 7.297464599609375000e+02 -8.885461837053298950e-03 0.000000000000000000e+00
 7.330360717773437500e+02 -4.055185709148645401e-03 0.000000000000000000e+00
 </DataArray>
</CellData>
</Piece>
</UnstructuredGrid>
</VTKFile>
