<VTKFile type="UnstructuredGrid" byte_order="BigEndian">
<UnstructuredGrid><Piece NumberOfPoints="34" NumberOfCells="16">
<Points>
 <DataArray type="Float32" NumberOfComponents="3" format="ascii">
 -2.132372856140136719e-01 0.000000000000000000e+00 0.000000000000000000e+00
 -2.069099545478820801e-01 0.000000000000000000e+00 0.000000000000000000e+00
 -2.005826234817504883e-01 0.000000000000000000e+00 0.000000000000000000e+00
 -1.942552924156188965e-01 0.000000000000000000e+00 0.000000000000000000e+00
 -1.879279613494873047e-01 0.000000000000000000e+00 0.000000000000000000e+00
 -1.816006302833557129e-01 0.000000000000000000e+00 0.000000000000000000e+00
 -1.752732992172241211e-01 0.000000000000000000e+00 0.000000000000000000e+00
 -1.689459681510925293e-01 0.000000000000000000e+00 0.000000000000000000e+00
 -1.626186370849609375e-01 0.000000000000000000e+00 0.000000000000000000e+00
 -1.562913209199905396e-01 0.000000000000000000e+00 0.000000000000000000e+00
 -1.499639898538589478e-01 0.000000000000000000e+00 0.000000000000000000e+00
 -1.436366587877273560e-01 0.000000000000000000e+00 0.000000000000000000e+00
 -1.373093277215957642e-01 0.000000000000000000e+00 0.000000000000000000e+00
 -1.309819966554641724e-01 0.000000000000000000e+00 0.000000000000000000e+00
 -1.246546581387519836e-01 0.000000000000000000e+00 0.000000000000000000e+00
 -1.183273270726203918e-01 0.000000000000000000e+00 0.000000000000000000e+00
 -1.120000034570693970e-01 0.000000000000000000e+00 0.000000000000000000e+00
 -2.132372856140136719e-01 1.283999979496002197e-01 0.000000000000000000e+00
 -2.069099545478820801e-01 1.283999979496002197e-01 0.000000000000000000e+00
 -2.005826234817504883e-01 1.283999979496002197e-01 0.000000000000000000e+00
 -1.942552924156188965e-01 1.283999979496002197e-01 0.000000000000000000e+00
 -1.879279613494873047e-01 1.283999979496002197e-01 0.000000000000000000e+00
 -1.816006302833557129e-01 1.283999979496002197e-01 0.000000000000000000e+00
 -1.752732992172241211e-01 1.283999979496002197e-01 0.000000000000000000e+00
 -1.689459681510925293e-01 1.283999979496002197e-01 0.000000000000000000e+00
 -1.626186370849609375e-01 1.283999979496002197e-01 0.000000000000000000e+00
 -1.562913209199905396e-01 1.283999979496002197e-01 0.000000000000000000e+00
 -1.499639898538589478e-01 1.283999979496002197e-01 0.000000000000000000e+00
 -1.436366587877273560e-01 1.283999979496002197e-01 0.000000000000000000e+00
 -1.373093277215957642e-01 1.283999979496002197e-01 0.000000000000000000e+00
 -1.309819966554641724e-01 1.283999979496002197e-01 0.000000000000000000e+00
 -1.246546581387519836e-01 1.283999979496002197e-01 0.000000000000000000e+00
 -1.183273270726203918e-01 1.283999979496002197e-01 0.000000000000000000e+00
 -1.120000034570693970e-01 1.283999979496002197e-01 0.000000000000000000e+00
 </DataArray>
</Points>
<Cells>
 <DataArray type="Int32" Name="connectivity" format="ascii">
 0 1 18 17
 1 2 19 18
 2 3 20 19
 3 4 21 20
 4 5 22 21
 5 6 23 22
 6 7 24 23
 7 8 25 24
 8 9 26 25
 9 10 27 26
 10 11 28 27
 11 12 29 28
 12 13 30 29
 13 14 31 30
 14 15 32 31
 15 16 33 32
 </DataArray>
 <DataArray type="Int32" Name="offsets" format="ascii">
 4
 8
 12
 16
 20
 24
 28
 32
 36
 40
 44
 48
 52
 56
 60
 64
 </DataArray>
 <DataArray type="UInt8" Name="types" format="ascii">
 9
 9
 9
 9
 9
 9
 9
 9
 9
 9
 9
 9
 9
 9
 9
 9
 </DataArray>
</Cells>
<CellData>
 <DataArray Name="pos.x" type="Float32" NumberOfComponents="1" format="ascii">
 -2.100736235366919280e-01
 -2.037462929859386318e-01
 -1.974189624351842531e-01
 -1.910916318844284589e-01
 -1.847643013336754125e-01
 -1.784369707829208118e-01
 -1.721096402321664331e-01
 -1.657823096814115826e-01
 -1.594549791306581477e-01
 -1.531276485799029918e-01
 -1.468003180291494736e-01
 -1.404729874783940125e-01
 -1.341456569276404387e-01
 -1.278183263768857547e-01
 -1.214909958261317230e-01
 -1.151636652753769974e-01
 </DataArray>
 <DataArray Name="pos.y" type="Float32" NumberOfComponents="1" format="ascii">
 6.419999999999985441e-02
 6.420000000000011808e-02
 6.420000000000011808e-02
 6.419999999999985441e-02
 6.420000000000013196e-02
 6.419999999999986828e-02
 6.420000000000011808e-02
 6.419999999999984053e-02
 6.420000000000011808e-02
 6.419999999999985441e-02
 6.420000000000011808e-02
 6.419999999999985441e-02
 6.420000000000013196e-02
 6.419999999999984053e-02
 6.420000000000013196e-02
 6.419999999999997931e-02
 </DataArray>
 <DataArray Name="pos.z" type="Float32" NumberOfComponents="1" format="ascii">
 0.000000000000000000e+00
 0.000000000000000000e+00
 0.000000000000000000e+00
 0.000000000000000000e+00
 0.000000000000000000e+00
 0.000000000000000000e+00
 0.000000000000000000e+00
 0.000000000000000000e+00
 0.000000000000000000e+00
 0.000000000000000000e+00
 0.000000000000000000e+00
 0.000000000000000000e+00
 0.000000000000000000e+00
 0.000000000000000000e+00
 0.000000000000000000e+00
 0.000000000000000000e+00
 </DataArray>
 <DataArray Name="volume" type="Float32" NumberOfComponents="1" format="ascii">
 5.215795738242231790e-05
 5.215795738242231112e-05
 5.215795738242208750e-05
 5.215795738242231790e-05
 5.215795738242254829e-05
 5.215795738242277868e-05
 5.215795738242231112e-05
 5.215795738242208750e-05
 5.215795738242231112e-05
 5.215795738242231790e-05
 5.215795738242231112e-05
 5.215795738242231790e-05
 5.215795738242254829e-05
 5.215795738242208750e-05
 5.215795738242265671e-05
 5.215795738242208750e-05
 </DataArray>
 <DataArray Name="rho" type="Float32" NumberOfComponents="1" format="ascii">
 3.542118679726582897e+00
 3.542116867839788963e+00
 3.542111341166866989e+00
 3.542102254287403440e+00
 3.542089788841745079e+00
 3.542074155534636226e+00
 3.542055578997691523e+00
 3.542034283511294568e+00
 3.542010480331455380e+00
 3.541984357171495290e+00
 3.541956070169708148e+00
 3.541925738379213762e+00
 3.541893440909374746e+00
 3.541859207396959253e+00
 3.541823837320017265e+00
 3.541714536209930042e+00
 </DataArray>
 <DataArray Name="vel.x" type="Float32" NumberOfComponents="1" format="ascii">
 1.469895266174712667e+00
 4.409020680802265169e+00
 7.348157098009036936e+00
 1.028730076729077680e+01
 1.322645450355934571e+01
 1.616562117162797207e+01
 1.910480377981674494e+01
 2.204400551417240806e+01
 2.498322977532792777e+01
 2.792248021664293489e+01
 3.086176078234388243e+01
 3.380107574342188315e+01
 3.674042976995343679e+01
 3.967982436616638608e+01
 4.261958209179520907e+01
 4.553092079835451500e+01
 </DataArray>
 <DataArray Name="vel.y" type="Float32" NumberOfComponents="1" format="ascii">
 4.548511113125541009e-12
 -2.714564686403597116e-12
 -2.699616926832396508e-12
 4.546066406752133751e-12
 -2.622552891100205084e-12
 4.539868397284414927e-12
 -9.045164929122613867e-13
 4.556633433369639721e-12
 -9.173418976377035310e-13
 4.539730696737816237e-12
 -9.124066278063984614e-13
 4.548883649399396584e-12
 -9.163960975987568650e-13
 4.547180470883584845e-12
 -8.969459231649622134e-13
 9.020116188216692992e-13
 </DataArray>
 <DataArray Name="vel.z" type="Float32" NumberOfComponents="1" format="ascii">
 0.000000000000000000e+00
 0.000000000000000000e+00
 0.000000000000000000e+00
 0.000000000000000000e+00
 0.000000000000000000e+00
 0.000000000000000000e+00
 0.000000000000000000e+00
 0.000000000000000000e+00
 0.000000000000000000e+00
 0.000000000000000000e+00
 0.000000000000000000e+00
 0.000000000000000000e+00
 0.000000000000000000e+00
 0.000000000000000000e+00
 0.000000000000000000e+00
 0.000000000000000000e+00
 </DataArray>
 <DataArray Name="p" type="Float32" NumberOfComponents="1" format="ascii">
 1.663100466206857190e+07
 1.663099058892646246e+07
 1.663095463133710437e+07
 1.663089696511678025e+07
 1.663081773635706119e+07
 1.663071713244561851e+07
 1.663059537454645708e+07
 1.663045270957530849e+07
 1.663028940123421699e+07
 1.663010572043528967e+07
 1.662990193545847572e+07
 1.662967830219222046e+07
 1.662943505528942309e+07
 1.662917235731393658e+07
 1.662889411587127484e+07
 1.662826046873280220e+07
 </DataArray>
 <DataArray Name="a" type="Float32" NumberOfComponents="1" format="ascii">
 2.797383850427310335e+03
 2.797383382322783746e+03
 2.797382540575505573e+03
 2.797381278927485255e+03
 2.797379537932156381e+03
 2.797377250135636132e+03
 2.797374345421264934e+03
 2.797370755972463940e+03
 2.797366420522908356e+03
 2.797361287704638016e+03
 2.797355318392323625e+03
 2.797348487058672163e+03
 2.797340782159837090e+03
 2.797332205621545654e+03
 2.797322770353555370e+03
 2.797312636626034873e+03
 </DataArray>
 <DataArray Name="mu" type="Float32" NumberOfComponents="1" format="ascii">
 1.064223939492820554e-04
 1.064223939492820554e-04
 1.064223939492820554e-04
 1.064223939492820554e-04
 1.064223939492820554e-04
 1.064223939492820554e-04
 1.064223939492820554e-04
 1.064223939492820554e-04
 1.064223939492820554e-04
 1.064223939492820554e-04
 1.064223939492820554e-04
 1.064223939492820554e-04
 1.064223939492820554e-04
 1.064223939492820554e-04
 1.064223939492820554e-04
 1.064223939492820554e-04
 </DataArray>
 <DataArray Name="k" type="Float32" NumberOfComponents="1" format="ascii">
 8.304462020313038151e-01
 8.304462020313038151e-01
 8.304462020313038151e-01
 8.304462020313038151e-01
 8.304462020313038151e-01
 8.304462020313038151e-01
 8.304462020313038151e-01
 8.304462020313038151e-01
 8.304462020313038151e-01
 8.304462020313038151e-01
 8.304462020313038151e-01
 8.304462020313038151e-01
 8.304462020313038151e-01
 8.304462020313038151e-01
 8.304462020313038151e-01
 8.304462020313038151e-01
 </DataArray>
 <DataArray Name="mu_t" type="Float32" NumberOfComponents="1" format="ascii">
 0.000000000000000000e+00
 0.000000000000000000e+00
 0.000000000000000000e+00
 0.000000000000000000e+00
 0.000000000000000000e+00
 0.000000000000000000e+00
 0.000000000000000000e+00
 0.000000000000000000e+00
 0.000000000000000000e+00
 0.000000000000000000e+00
 0.000000000000000000e+00
 0.000000000000000000e+00
 0.000000000000000000e+00
 0.000000000000000000e+00
 0.000000000000000000e+00
 0.000000000000000000e+00
 </DataArray>
 <DataArray Name="k_t" type="Float32" NumberOfComponents="1" format="ascii">
 0.000000000000000000e+00
 0.000000000000000000e+00
 0.000000000000000000e+00
 0.000000000000000000e+00
 0.000000000000000000e+00
 0.000000000000000000e+00
 0.000000000000000000e+00
 0.000000000000000000e+00
 0.000000000000000000e+00
 0.000000000000000000e+00
 0.000000000000000000e+00
 0.000000000000000000e+00
 0.000000000000000000e+00
 0.000000000000000000e+00
 0.000000000000000000e+00
 0.000000000000000000e+00
 </DataArray>
 <DataArray Name="S" type="Float32" NumberOfComponents="1" format="ascii">
 0.000000000000000000e+00
 0.000000000000000000e+00
 0.000000000000000000e+00
 0.000000000000000000e+00
 0.000000000000000000e+00
 0.000000000000000000e+00
 0.000000000000000000e+00
 0.000000000000000000e+00
 0.000000000000000000e+00
 0.000000000000000000e+00
 0.000000000000000000e+00
 0.000000000000000000e+00
 0.000000000000000000e+00
 0.000000000000000000e+00
 0.000000000000000000e+00
 0.000000000000000000e+00
 </DataArray>
 <DataArray Name="massf[0]-Ar" type="Float32" NumberOfComponents="1" format="ascii">
 0.000000000000000000e+00
 0.000000000000000000e+00
 0.000000000000000000e+00
 0.000000000000000000e+00
 0.000000000000000000e+00
 0.000000000000000000e+00
 0.000000000000000000e+00
 0.000000000000000000e+00
 0.000000000000000000e+00
 0.000000000000000000e+00
 0.000000000000000000e+00
 0.000000000000000000e+00
 0.000000000000000000e+00
 0.000000000000000000e+00
 0.000000000000000000e+00
 0.000000000000000000e+00
 </DataArray>
 <DataArray Name="massf[1]-He" type="Float32" NumberOfComponents="1" format="ascii">
 1.000000000000000000e+00
 9.999999999999998890e-01
 1.000000000000000000e+00
 1.000000000000000000e+00
 1.000000000000000000e+00
 9.999999999999998890e-01
 1.000000000000000000e+00
 1.000000000000000000e+00
 1.000000000000000000e+00
 1.000000000000000000e+00
 1.000000000000000000e+00
 1.000000000000000000e+00
 1.000000000000000000e+00
 1.000000000000000000e+00
 1.000000000000000000e+00
 1.000000000000000000e+00
 </DataArray>
 <DataArray Name="massf[2]-N" type="Float32" NumberOfComponents="1" format="ascii">
 0.000000000000000000e+00
 0.000000000000000000e+00
 0.000000000000000000e+00
 0.000000000000000000e+00
 0.000000000000000000e+00
 0.000000000000000000e+00
 0.000000000000000000e+00
 0.000000000000000000e+00
 0.000000000000000000e+00
 0.000000000000000000e+00
 0.000000000000000000e+00
 0.000000000000000000e+00
 0.000000000000000000e+00
 0.000000000000000000e+00
 0.000000000000000000e+00
 0.000000000000000000e+00
 </DataArray>
 <DataArray Name="massf[3]-N2" type="Float32" NumberOfComponents="1" format="ascii">
 0.000000000000000000e+00
 0.000000000000000000e+00
 0.000000000000000000e+00
 0.000000000000000000e+00
 0.000000000000000000e+00
 0.000000000000000000e+00
 0.000000000000000000e+00
 0.000000000000000000e+00
 0.000000000000000000e+00
 0.000000000000000000e+00
 0.000000000000000000e+00
 0.000000000000000000e+00
 0.000000000000000000e+00
 0.000000000000000000e+00
 0.000000000000000000e+00
 0.000000000000000000e+00
 </DataArray>
 <DataArray Name="massf[4]-NO" type="Float32" NumberOfComponents="1" format="ascii">
 0.000000000000000000e+00
 0.000000000000000000e+00
 0.000000000000000000e+00
 0.000000000000000000e+00
 0.000000000000000000e+00
 0.000000000000000000e+00
 0.000000000000000000e+00
 0.000000000000000000e+00
 0.000000000000000000e+00
 0.000000000000000000e+00
 0.000000000000000000e+00
 0.000000000000000000e+00
 0.000000000000000000e+00
 0.000000000000000000e+00
 0.000000000000000000e+00
 0.000000000000000000e+00
 </DataArray>
 <DataArray Name="massf[5]-O" type="Float32" NumberOfComponents="1" format="ascii">
 0.000000000000000000e+00
 0.000000000000000000e+00
 0.000000000000000000e+00
 0.000000000000000000e+00
 0.000000000000000000e+00
 0.000000000000000000e+00
 0.000000000000000000e+00
 0.000000000000000000e+00
 0.000000000000000000e+00
 0.000000000000000000e+00
 0.000000000000000000e+00
 0.000000000000000000e+00
 0.000000000000000000e+00
 0.000000000000000000e+00
 0.000000000000000000e+00
 0.000000000000000000e+00
 </DataArray>
 <DataArray Name="massf[6]-O2" type="Float32" NumberOfComponents="1" format="ascii">
 0.000000000000000000e+00
 0.000000000000000000e+00
 0.000000000000000000e+00
 0.000000000000000000e+00
 0.000000000000000000e+00
 0.000000000000000000e+00
 0.000000000000000000e+00
 0.000000000000000000e+00
 0.000000000000000000e+00
 0.000000000000000000e+00
 0.000000000000000000e+00
 0.000000000000000000e+00
 0.000000000000000000e+00
 0.000000000000000000e+00
 0.000000000000000000e+00
 0.000000000000000000e+00
 </DataArray>
 <DataArray Name="dt_chem" type="Float32" NumberOfComponents="1" format="ascii">
 -1.000000000000000000e+00
 -1.000000000000000000e+00
 -1.000000000000000000e+00
 -1.000000000000000000e+00
 -1.000000000000000000e+00
 -1.000000000000000000e+00
 -1.000000000000000000e+00
 -1.000000000000000000e+00
 -1.000000000000000000e+00
 -1.000000000000000000e+00
 -1.000000000000000000e+00
 -1.000000000000000000e+00
 -1.000000000000000000e+00
 -1.000000000000000000e+00
 -1.000000000000000000e+00
 -1.000000000000000000e+00
 </DataArray>
 <DataArray Name="u" type="Float32" NumberOfComponents="1" format="ascii">
 5.494470994682093151e+06
 5.494468637639814056e+06
 5.494464399198723957e+06
 5.494458046438297257e+06
 5.494449280031093396e+06
 5.494437760332491249e+06
 5.494423134292671457e+06
 5.494405060446679592e+06
 5.494383230315954424e+06
 5.494357385267416015e+06
 5.494327328317757696e+06
 5.494292930958224460e+06
 5.494254135094868951e+06
 5.494210950460471213e+06
 5.494163442098359577e+06
 5.494112417038648389e+06
 </DataArray>
 <DataArray Name="T" type="Float32" NumberOfComponents="1" format="ascii">
 2.260274186011887195e+03
 2.260273429559039869e+03
 2.260272069303071476e+03
 2.260270030492077694e+03
 2.260267217061980773e+03
 2.260263520009586955e+03
 2.260258826029523334e+03
 2.260253025534397693e+03
 2.260246019523227915e+03
 2.260237724992103267e+03
 2.260228078722564078e+03
 2.260217039471898261e+03
 2.260204588595840505e+03
 2.260190729217956687e+03
 2.260175482212805491e+03
 2.260159106583049379e+03
 </DataArray>
 <DataArray Name="vel.vector" type="Float32" NumberOfComponents="3" format="ascii">
 1.469895243644714355e+00 4.548511307184144314e-12 0.000000000000000000e+00
 4.409020900726318359e+00 -2.714564684147546814e-12 0.000000000000000000e+00
 7.348156929016113281e+00 -2.699617005635923661e-12 0.000000000000000000e+00
 1.028730106353759766e+01 4.546066214444755005e-12 0.000000000000000000e+00
 1.322645473480224609e+01 -2.622552999417826491e-12 0.000000000000000000e+00
 1.616562080383300781e+01 4.539868481145958867e-12 0.000000000000000000e+00
 1.910480308532714844e+01 -9.045164790777437958e-13 0.000000000000000000e+00
 2.204400634765625000e+01 4.556633282498667725e-12 0.000000000000000000e+00
 2.498323059082031250e+01 -9.173419402569438219e-13 0.000000000000000000e+00
 2.792247962951660156e+01 4.539730570629618711e-12 0.000000000000000000e+00
 3.086176109313964844e+01 -9.124066519677898057e-13 0.000000000000000000e+00
 3.380107498168945312e+01 4.548883839050610334e-12 0.000000000000000000e+00
 3.674042892456054688e+01 -9.163960822816674678e-13 0.000000000000000000e+00
 3.967982482910156250e+01 4.547180340597201109e-12 0.000000000000000000e+00
 4.261958312988281250e+01 -8.969459289881465125e-13 0.000000000000000000e+00
 4.553092193603515625e+01 9.020115925885419106e-13 0.000000000000000000e+00
 </DataArray>
</CellData>
</Piece>
</UnstructuredGrid>
</VTKFile>
