<VTKFile type="UnstructuredGrid" byte_order="BigEndian">
<UnstructuredGrid><Piece NumberOfPoints="46" NumberOfCells="22">
<Points>
 <DataArray type="Float32" NumberOfComponents="3" format="ascii">
 9.822690010070800781e+00 0.000000000000000000e+00 0.000000000000000000e+00
 9.829310417175292969e+00 0.000000000000000000e+00 0.000000000000000000e+00
 9.835929870605468750e+00 0.000000000000000000e+00 0.000000000000000000e+00
 9.842550277709960938e+00 0.000000000000000000e+00 0.000000000000000000e+00
 9.849170684814453125e+00 0.000000000000000000e+00 0.000000000000000000e+00
 9.855791091918945312e+00 0.000000000000000000e+00 0.000000000000000000e+00
 9.862410545349121094e+00 0.000000000000000000e+00 0.000000000000000000e+00
 9.869030952453613281e+00 0.000000000000000000e+00 0.000000000000000000e+00
 9.875651359558105469e+00 0.000000000000000000e+00 0.000000000000000000e+00
 9.882271766662597656e+00 0.000000000000000000e+00 0.000000000000000000e+00
 9.888891220092773438e+00 0.000000000000000000e+00 0.000000000000000000e+00
 9.895511627197265625e+00 0.000000000000000000e+00 0.000000000000000000e+00
 9.902132034301757812e+00 0.000000000000000000e+00 0.000000000000000000e+00
 9.908752441406250000e+00 0.000000000000000000e+00 0.000000000000000000e+00
 9.915371894836425781e+00 0.000000000000000000e+00 0.000000000000000000e+00
 9.921992301940917969e+00 0.000000000000000000e+00 0.000000000000000000e+00
 9.928612709045410156e+00 0.000000000000000000e+00 0.000000000000000000e+00
 9.935232162475585938e+00 0.000000000000000000e+00 0.000000000000000000e+00
 9.941852569580078125e+00 0.000000000000000000e+00 0.000000000000000000e+00
 9.948472976684570312e+00 0.000000000000000000e+00 0.000000000000000000e+00
 9.955093383789062500e+00 0.000000000000000000e+00 0.000000000000000000e+00
 9.961712837219238281e+00 0.000000000000000000e+00 0.000000000000000000e+00
 9.968333244323730469e+00 0.000000000000000000e+00 0.000000000000000000e+00
 9.822690010070800781e+00 9.982699900865554810e-02 0.000000000000000000e+00
 9.829310417175292969e+00 9.987304359674453735e-02 0.000000000000000000e+00
 9.835929870605468750e+00 9.991908818483352661e-02 0.000000000000000000e+00
 9.842550277709960938e+00 9.996513277292251587e-02 0.000000000000000000e+00
 9.849170684814453125e+00 1.000111848115921021e-01 0.000000000000000000e+00
 9.855791091918945312e+00 1.000572293996810913e-01 0.000000000000000000e+00
 9.862410545349121094e+00 1.001032739877700806e-01 0.000000000000000000e+00
 9.869030952453613281e+00 1.001493185758590698e-01 0.000000000000000000e+00
 9.875651359558105469e+00 1.001953631639480591e-01 0.000000000000000000e+00
 9.882271766662597656e+00 1.002414077520370483e-01 0.000000000000000000e+00
 9.888891220092773438e+00 1.002874523401260376e-01 0.000000000000000000e+00
 9.895511627197265625e+00 1.003334969282150269e-01 0.000000000000000000e+00
 9.902132034301757812e+00 1.003795489668846130e-01 0.000000000000000000e+00
 9.908752441406250000e+00 1.004255935549736023e-01 0.000000000000000000e+00
 9.915371894836425781e+00 1.004716381430625916e-01 0.000000000000000000e+00
 9.921992301940917969e+00 1.005176827311515808e-01 0.000000000000000000e+00
 9.928612709045410156e+00 1.005637273192405701e-01 0.000000000000000000e+00
 9.935232162475585938e+00 1.006097719073295593e-01 0.000000000000000000e+00
 9.941852569580078125e+00 1.006558164954185486e-01 0.000000000000000000e+00
 9.948472976684570312e+00 1.007018610835075378e-01 0.000000000000000000e+00
 9.955093383789062500e+00 1.007479056715965271e-01 0.000000000000000000e+00
 9.961712837219238281e+00 1.007939577102661133e-01 0.000000000000000000e+00
 9.968333244323730469e+00 1.008400022983551025e-01 0.000000000000000000e+00
 </DataArray>
</Points>
<Cells>
 <DataArray type="Int32" Name="connectivity" format="ascii">
 0 1 24 23
 1 2 25 24
 2 3 26 25
 3 4 27 26
 4 5 28 27
 5 6 29 28
 6 7 30 29
 7 8 31 30
 8 9 32 31
 9 10 33 32
 10 11 34 33
 11 12 35 34
 12 13 36 35
 13 14 37 36
 14 15 38 37
 15 16 39 38
 16 17 40 39
 17 18 41 40
 18 19 42 41
 19 20 43 42
 20 21 44 43
 21 22 45 44
 </DataArray>
 <DataArray type="Int32" Name="offsets" format="ascii">
 4
 8
 12
 16
 20
 24
 28
 32
 36
 40
 44
 48
 52
 56
 60
 64
 68
 72
 76
 80
 84
 88
 </DataArray>
 <DataArray type="UInt8" Name="types" format="ascii">
 9
 9
 9
 9
 9
 9
 9
 9
 9
 9
 9
 9
 9
 9
 9
 9
 9
 9
 9
 9
 9
 9
 </DataArray>
</Cells>
<CellData>
 <DataArray Name="pos.x" type="Float32" NumberOfComponents="1" format="ascii">
 9.826000330163308760e+00
 9.832620481561068715e+00
 9.839240632957592325e+00
 9.845860784356382567e+00
 9.852480935754826419e+00
 9.859101087154652276e+00
 9.865721238550195338e+00
 9.872341389948509516e+00
 9.878961541349013942e+00
 9.885581692746976401e+00
 9.892201844147507472e+00
 9.898821995542810726e+00
 9.905442146944745119e+00
 9.912062298344396893e+00
 9.918682449742149743e+00
 9.925302601140929326e+00
 9.931922752541868959e+00
 9.938542903938373030e+00
 9.945163055342769454e+00
 9.951783206741200871e+00
 9.958403358141779904e+00
 9.965023509538943003e+00
 </DataArray>
 <DataArray Name="pos.y" type="Float32" NumberOfComponents="1" format="ascii">
 4.992501224838374885e-02
 4.994803497524093888e-02
 4.997105770210014120e-02
 4.999408042896644200e-02
 5.001710315583480365e-02
 5.004012588271024298e-02
 5.006314860956764118e-02
 5.008617133643035457e-02
 5.010919406330355264e-02
 5.013221679017714622e-02
 5.015523951703607791e-02
 5.017826224390024847e-02
 5.020128497077493146e-02
 5.022430769764670011e-02
 5.024733042452211862e-02
 5.027035315138445037e-02
 5.029337587825734313e-02
 5.031639860511199352e-02
 5.033942133201078223e-02
 5.036244405887455033e-02
 5.038546678574893495e-02
 5.040848951261017730e-02
 </DataArray>
 <DataArray Name="pos.z" type="Float32" NumberOfComponents="1" format="ascii">
 0.000000000000000000e+00
 0.000000000000000000e+00
 0.000000000000000000e+00
 0.000000000000000000e+00
 0.000000000000000000e+00
 0.000000000000000000e+00
 0.000000000000000000e+00
 0.000000000000000000e+00
 0.000000000000000000e+00
 0.000000000000000000e+00
 0.000000000000000000e+00
 0.000000000000000000e+00
 0.000000000000000000e+00
 0.000000000000000000e+00
 0.000000000000000000e+00
 0.000000000000000000e+00
 0.000000000000000000e+00
 0.000000000000000000e+00
 0.000000000000000000e+00
 0.000000000000000000e+00
 0.000000000000000000e+00
 0.000000000000000000e+00
 </DataArray>
 <DataArray Name="volume" type="Float32" NumberOfComponents="1" format="ascii">
 3.300154538780131804e-05
 3.303198947707428702e-05
 3.306244760230352505e-05
 3.309291976345357872e-05
 3.312340596055994888e-05
 3.315390619358710080e-05
 3.318442046257950710e-05
 3.321494876747482615e-05
 3.324549110832652267e-05
 3.327604748511678865e-05
 3.330661789786346598e-05
 3.333720234651295442e-05
 3.336780083111886099e-05
 3.339841335167229524e-05
 3.342903990815532039e-05
 3.345968050056793644e-05
 3.349033512893705871e-05
 3.352100379322675268e-05
 3.355168649347299353e-05
 3.358238322963978575e-05
 3.361309400176315195e-05
 3.364381880981606840e-05
 </DataArray>
 <DataArray Name="rho" type="Float32" NumberOfComponents="1" format="ascii">
 1.528855304762397147e-04
 1.528855304762397147e-04
 1.528855304762397147e-04
 1.528855304762397147e-04
 1.528855304762397147e-04
 1.528855304762397147e-04
 1.528855304762397147e-04
 1.528855304762397147e-04
 1.528855304762397147e-04
 1.528855304762397147e-04
 1.528855304762397147e-04
 1.528855304762397147e-04
 1.528855304762397147e-04
 1.528855304762397147e-04
 1.528855304762397147e-04
 1.528855304762397147e-04
 1.528855304762397147e-04
 1.528855304762397147e-04
 1.528855304762397147e-04
 1.528855304762397147e-04
 1.528855304762397147e-04
 1.528855304762397147e-04
 </DataArray>
 <DataArray Name="vel.x" type="Float32" NumberOfComponents="1" format="ascii">
 6.407025543713872257e-14
 1.022931291772010776e-13
 9.293677563821468733e-14
 3.851995940124523013e-14
 1.641409201358257993e-14
 -1.944444446537774847e-14
 3.862481686897016036e-14
 5.735931930325042317e-14
 6.014666746236851865e-14
 1.962086164071781806e-14
 1.899855751795855624e-14
 1.157017786213768213e-13
 1.161254256314416698e-13
 3.834726127580676529e-14
 1.293030298171775305e-14
 5.777902231837523078e-14
 3.886075678633954872e-14
 3.853015371145948109e-14
 3.917391678346823677e-15
 -3.837455579104922295e-14
 -1.941814596419523185e-14
 -1.889877800500723402e-14
 </DataArray>
 <DataArray Name="vel.y" type="Float32" NumberOfComponents="1" format="ascii">
 -5.218317933780423911e-11
 -1.375612031313320225e-11
 1.625840961402929677e-11
 1.330214254074317642e-11
 1.705460523496046691e-12
 -4.286125756582903005e-11
 3.521288998672815427e-12
 2.546866291892406428e-11
 -2.387252988820873000e-12
 -3.035503802766453610e-11
 1.596149281410405112e-11
 3.808682355857071347e-11
 9.892208813450685013e-12
 -1.477775493444269940e-12
 -2.931987502598156291e-11
 8.754668762039982958e-12
 -2.614823589072417849e-12
 7.719568573635403514e-11
 -5.846019026737279868e-11
 -1.966935706904804092e-11
 -3.184563854004057374e-11
 2.307880503698873599e-11
 </DataArray>
 <DataArray Name="vel.z" type="Float32" NumberOfComponents="1" format="ascii">
 0.000000000000000000e+00
 0.000000000000000000e+00
 0.000000000000000000e+00
 0.000000000000000000e+00
 0.000000000000000000e+00
 0.000000000000000000e+00
 0.000000000000000000e+00
 0.000000000000000000e+00
 0.000000000000000000e+00
 0.000000000000000000e+00
 0.000000000000000000e+00
 0.000000000000000000e+00
 0.000000000000000000e+00
 0.000000000000000000e+00
 0.000000000000000000e+00
 0.000000000000000000e+00
 0.000000000000000000e+00
 0.000000000000000000e+00
 0.000000000000000000e+00
 0.000000000000000000e+00
 0.000000000000000000e+00
 0.000000000000000000e+00
 </DataArray>
 <DataArray Name="p" type="Float32" NumberOfComponents="1" format="ascii">
 1.319999999999999929e+01
 1.319999999999999929e+01
 1.319999999999999929e+01
 1.319999999999999929e+01
 1.319999999999999929e+01
 1.319999999999999929e+01
 1.319999999999999929e+01
 1.319999999999999929e+01
 1.319999999999999929e+01
 1.319999999999999929e+01
 1.319999999999999929e+01
 1.319999999999999929e+01
 1.319999999999999929e+01
 1.319999999999999929e+01
 1.319999999999999929e+01
 1.319999999999999929e+01
 1.319999999999999929e+01
 1.319999999999999929e+01
 1.319999999999999929e+01
 1.319999999999999929e+01
 1.319999999999999929e+01
 1.319999999999999929e+01
 </DataArray>
 <DataArray Name="a" type="Float32" NumberOfComponents="1" format="ascii">
 3.474749704973453390e+02
 3.474749704973453390e+02
 3.474749704973453390e+02
 3.474749704973453390e+02
 3.474749704973453390e+02
 3.474749704973453390e+02
 3.474749704973453390e+02
 3.474749704973453390e+02
 3.474749704973453390e+02
 3.474749704973453390e+02
 3.474749704973453390e+02
 3.474749704973453390e+02
 3.474749704973453390e+02
 3.474749704973453390e+02
 3.474749704973453390e+02
 3.474749704973453390e+02
 3.474749704973453390e+02
 3.474749704973453390e+02
 3.474749704973453390e+02
 3.474749704973453390e+02
 3.474749704973453390e+02
 3.474749704973453390e+02
 </DataArray>
 <DataArray Name="mu" type="Float32" NumberOfComponents="1" format="ascii">
 1.853126952258717352e-05
 1.853126952258717352e-05
 1.853126952258717352e-05
 1.853126952258717352e-05
 1.853126952258717352e-05
 1.853126952258717352e-05
 1.853126952258717352e-05
 1.853126952258717352e-05
 1.853126952258717352e-05
 1.853126952258717352e-05
 1.853126952258717352e-05
 1.853126952258717352e-05
 1.853126952258717352e-05
 1.853126952258717352e-05
 1.853126952258717352e-05
 1.853126952258717352e-05
 1.853126952258717352e-05
 1.853126952258717352e-05
 1.853126952258717352e-05
 1.853126952258717352e-05
 1.853126952258717352e-05
 1.853126952258717352e-05
 </DataArray>
 <DataArray Name="k" type="Float32" NumberOfComponents="1" format="ascii">
 2.626199291280435430e-02
 2.626199291280435430e-02
 2.626199291280435430e-02
 2.626199291280435430e-02
 2.626199291280435430e-02
 2.626199291280435430e-02
 2.626199291280435430e-02
 2.626199291280435430e-02
 2.626199291280435430e-02
 2.626199291280435430e-02
 2.626199291280435430e-02
 2.626199291280435430e-02
 2.626199291280435430e-02
 2.626199291280435430e-02
 2.626199291280435430e-02
 2.626199291280435430e-02
 2.626199291280435430e-02
 2.626199291280435430e-02
 2.626199291280435430e-02
 2.626199291280435430e-02
 2.626199291280435430e-02
 2.626199291280435430e-02
 </DataArray>
 <DataArray Name="mu_t" type="Float32" NumberOfComponents="1" format="ascii">
 0.000000000000000000e+00
 0.000000000000000000e+00
 0.000000000000000000e+00
 0.000000000000000000e+00
 0.000000000000000000e+00
 0.000000000000000000e+00
 0.000000000000000000e+00
 0.000000000000000000e+00
 0.000000000000000000e+00
 0.000000000000000000e+00
 0.000000000000000000e+00
 0.000000000000000000e+00
 0.000000000000000000e+00
 0.000000000000000000e+00
 0.000000000000000000e+00
 0.000000000000000000e+00
 0.000000000000000000e+00
 0.000000000000000000e+00
 0.000000000000000000e+00
 0.000000000000000000e+00
 0.000000000000000000e+00
 0.000000000000000000e+00
 </DataArray>
 <DataArray Name="k_t" type="Float32" NumberOfComponents="1" format="ascii">
 0.000000000000000000e+00
 0.000000000000000000e+00
 0.000000000000000000e+00
 0.000000000000000000e+00
 0.000000000000000000e+00
 0.000000000000000000e+00
 0.000000000000000000e+00
 0.000000000000000000e+00
 0.000000000000000000e+00
 0.000000000000000000e+00
 0.000000000000000000e+00
 0.000000000000000000e+00
 0.000000000000000000e+00
 0.000000000000000000e+00
 0.000000000000000000e+00
 0.000000000000000000e+00
 0.000000000000000000e+00
 0.000000000000000000e+00
 0.000000000000000000e+00
 0.000000000000000000e+00
 0.000000000000000000e+00
 0.000000000000000000e+00
 </DataArray>
 <DataArray Name="S" type="Float32" NumberOfComponents="1" format="ascii">
 0.000000000000000000e+00
 0.000000000000000000e+00
 0.000000000000000000e+00
 0.000000000000000000e+00
 0.000000000000000000e+00
 0.000000000000000000e+00
 0.000000000000000000e+00
 0.000000000000000000e+00
 0.000000000000000000e+00
 0.000000000000000000e+00
 0.000000000000000000e+00
 0.000000000000000000e+00
 0.000000000000000000e+00
 0.000000000000000000e+00
 0.000000000000000000e+00
 0.000000000000000000e+00
 0.000000000000000000e+00
 0.000000000000000000e+00
 0.000000000000000000e+00
 0.000000000000000000e+00
 0.000000000000000000e+00
 0.000000000000000000e+00
 </DataArray>
 <DataArray Name="massf[0]-Ar" type="Float32" NumberOfComponents="1" format="ascii">
 0.000000000000000000e+00
 0.000000000000000000e+00
 0.000000000000000000e+00
 0.000000000000000000e+00
 0.000000000000000000e+00
 0.000000000000000000e+00
 0.000000000000000000e+00
 0.000000000000000000e+00
 0.000000000000000000e+00
 0.000000000000000000e+00
 0.000000000000000000e+00
 0.000000000000000000e+00
 0.000000000000000000e+00
 0.000000000000000000e+00
 0.000000000000000000e+00
 0.000000000000000000e+00
 0.000000000000000000e+00
 0.000000000000000000e+00
 0.000000000000000000e+00
 0.000000000000000000e+00
 0.000000000000000000e+00
 0.000000000000000000e+00
 </DataArray>
 <DataArray Name="massf[1]-He" type="Float32" NumberOfComponents="1" format="ascii">
 0.000000000000000000e+00
 0.000000000000000000e+00
 0.000000000000000000e+00
 0.000000000000000000e+00
 0.000000000000000000e+00
 0.000000000000000000e+00
 0.000000000000000000e+00
 0.000000000000000000e+00
 0.000000000000000000e+00
 0.000000000000000000e+00
 0.000000000000000000e+00
 0.000000000000000000e+00
 0.000000000000000000e+00
 0.000000000000000000e+00
 0.000000000000000000e+00
 0.000000000000000000e+00
 0.000000000000000000e+00
 0.000000000000000000e+00
 0.000000000000000000e+00
 0.000000000000000000e+00
 0.000000000000000000e+00
 0.000000000000000000e+00
 </DataArray>
 <DataArray Name="massf[2]-N" type="Float32" NumberOfComponents="1" format="ascii">
 0.000000000000000000e+00
 0.000000000000000000e+00
 0.000000000000000000e+00
 0.000000000000000000e+00
 0.000000000000000000e+00
 0.000000000000000000e+00
 0.000000000000000000e+00
 0.000000000000000000e+00
 0.000000000000000000e+00
 0.000000000000000000e+00
 0.000000000000000000e+00
 0.000000000000000000e+00
 0.000000000000000000e+00
 0.000000000000000000e+00
 0.000000000000000000e+00
 0.000000000000000000e+00
 0.000000000000000000e+00
 0.000000000000000000e+00
 0.000000000000000000e+00
 0.000000000000000000e+00
 0.000000000000000000e+00
 0.000000000000000000e+00
 </DataArray>
 <DataArray Name="massf[3]-N2" type="Float32" NumberOfComponents="1" format="ascii">
 7.563277885211407980e-01
 7.563277885211407980e-01
 7.563277885211407980e-01
 7.563277885211407980e-01
 7.563277885211407980e-01
 7.563277885211407980e-01
 7.563277885211407980e-01
 7.563277885211407980e-01
 7.563277885211407980e-01
 7.563277885211407980e-01
 7.563277885211407980e-01
 7.563277885211407980e-01
 7.563277885211407980e-01
 7.563277885211407980e-01
 7.563277885211407980e-01
 7.563277885211407980e-01
 7.563277885211407980e-01
 7.563277885211407980e-01
 7.563277885211407980e-01
 7.563277885211407980e-01
 7.563277885211407980e-01
 7.563277885211407980e-01
 </DataArray>
 <DataArray Name="massf[4]-NO" type="Float32" NumberOfComponents="1" format="ascii">
 0.000000000000000000e+00
 0.000000000000000000e+00
 0.000000000000000000e+00
 0.000000000000000000e+00
 0.000000000000000000e+00
 0.000000000000000000e+00
 0.000000000000000000e+00
 0.000000000000000000e+00
 0.000000000000000000e+00
 0.000000000000000000e+00
 0.000000000000000000e+00
 0.000000000000000000e+00
 0.000000000000000000e+00
 0.000000000000000000e+00
 0.000000000000000000e+00
 0.000000000000000000e+00
 0.000000000000000000e+00
 0.000000000000000000e+00
 0.000000000000000000e+00
 0.000000000000000000e+00
 0.000000000000000000e+00
 0.000000000000000000e+00
 </DataArray>
 <DataArray Name="massf[5]-O" type="Float32" NumberOfComponents="1" format="ascii">
 0.000000000000000000e+00
 0.000000000000000000e+00
 0.000000000000000000e+00
 0.000000000000000000e+00
 0.000000000000000000e+00
 0.000000000000000000e+00
 0.000000000000000000e+00
 0.000000000000000000e+00
 0.000000000000000000e+00
 0.000000000000000000e+00
 0.000000000000000000e+00
 0.000000000000000000e+00
 0.000000000000000000e+00
 0.000000000000000000e+00
 0.000000000000000000e+00
 0.000000000000000000e+00
 0.000000000000000000e+00
 0.000000000000000000e+00
 0.000000000000000000e+00
 0.000000000000000000e+00
 0.000000000000000000e+00
 0.000000000000000000e+00
 </DataArray>
 <DataArray Name="massf[6]-O2" type="Float32" NumberOfComponents="1" format="ascii">
 2.436722114788592020e-01
 2.436722114788592020e-01
 2.436722114788592020e-01
 2.436722114788592020e-01
 2.436722114788592020e-01
 2.436722114788592020e-01
 2.436722114788592020e-01
 2.436722114788592020e-01
 2.436722114788592020e-01
 2.436722114788592020e-01
 2.436722114788592020e-01
 2.436722114788592020e-01
 2.436722114788592020e-01
 2.436722114788592020e-01
 2.436722114788592020e-01
 2.436722114788592020e-01
 2.436722114788592020e-01
 2.436722114788592020e-01
 2.436722114788592020e-01
 2.436722114788592020e-01
 2.436722114788592020e-01
 2.436722114788592020e-01
 </DataArray>
 <DataArray Name="dt_chem" type="Float32" NumberOfComponents="1" format="ascii">
 -1.000000000000000000e+00
 -1.000000000000000000e+00
 -1.000000000000000000e+00
 -1.000000000000000000e+00
 -1.000000000000000000e+00
 -1.000000000000000000e+00
 -1.000000000000000000e+00
 -1.000000000000000000e+00
 -1.000000000000000000e+00
 -1.000000000000000000e+00
 -1.000000000000000000e+00
 -1.000000000000000000e+00
 -1.000000000000000000e+00
 -1.000000000000000000e+00
 -1.000000000000000000e+00
 -1.000000000000000000e+00
 -1.000000000000000000e+00
 -1.000000000000000000e+00
 -1.000000000000000000e+00
 -1.000000000000000000e+00
 -1.000000000000000000e+00
 -1.000000000000000000e+00
 </DataArray>
 <DataArray Name="u" type="Float32" NumberOfComponents="1" format="ascii">
 -8.447044764501467580e+04
 -8.447044764501467580e+04
 -8.447044764501467580e+04
 -8.447044764501467580e+04
 -8.447044764501467580e+04
 -8.447044764501467580e+04
 -8.447044764501467580e+04
 -8.447044764501467580e+04
 -8.447044764501467580e+04
 -8.447044764501467580e+04
 -8.447044764501467580e+04
 -8.447044764501467580e+04
 -8.447044764501467580e+04
 -8.447044764501467580e+04
 -8.447044764501467580e+04
 -8.447044764501467580e+04
 -8.447044764501467580e+04
 -8.447044764501467580e+04
 -8.447044764501467580e+04
 -8.447044764501467580e+04
 -8.447044764501467580e+04
 -8.447044764501467580e+04
 </DataArray>
 <DataArray Name="T" type="Float32" NumberOfComponents="1" format="ascii">
 3.000000000000000000e+02
 3.000000000000000000e+02
 3.000000000000000000e+02
 3.000000000000000000e+02
 3.000000000000000000e+02
 3.000000000000000000e+02
 3.000000000000000000e+02
 3.000000000000000000e+02
 3.000000000000000000e+02
 3.000000000000000000e+02
 3.000000000000000000e+02
 3.000000000000000000e+02
 3.000000000000000000e+02
 3.000000000000000000e+02
 3.000000000000000000e+02
 3.000000000000000000e+02
 3.000000000000000000e+02
 3.000000000000000000e+02
 3.000000000000000000e+02
 3.000000000000000000e+02
 3.000000000000000000e+02
 3.000000000000000000e+02
 </DataArray>
 <DataArray Name="vel.vector" type="Float32" NumberOfComponents="3" format="ascii">
 6.407025653293665912e-14 -5.218317791766402536e-11 0.000000000000000000e+00
 1.022931264975553145e-13 -1.375612037474160942e-11 0.000000000000000000e+00
 9.293677345713000082e-14 1.625840954921908832e-11 0.000000000000000000e+00
 3.851995830053862868e-14 1.330214237371674102e-11 0.000000000000000000e+00
 1.641409244309589843e-14 1.705460534080771584e-12 0.000000000000000000e+00
 -1.944444429145646136e-14 -4.286125621089098559e-11 0.000000000000000000e+00
 3.862481759127692205e-14 3.521288946192746572e-12 0.000000000000000000e+00
 5.735931613579450805e-14 2.546866363639654907e-11 0.000000000000000000e+00
 6.014666439598317926e-14 -2.387252938731987406e-12 0.000000000000000000e+00
 1.962086092557879802e-14 -3.035503792769844722e-11 0.000000000000000000e+00
 1.899855767769232512e-14 1.596149254434742204e-11 0.000000000000000000e+00
 1.157017732490717155e-13 3.808682189077039482e-11 0.000000000000000000e+00
 1.161254252479704263e-13 9.892208580053463152e-12 0.000000000000000000e+00
 3.834726183512063291e-14 -1.477775475773601688e-12 0.000000000000000000e+00
 1.293030268224642718e-14 -2.931987638787880712e-11 0.000000000000000000e+00
 5.777902434929080289e-14 8.754668864852099830e-12 0.000000000000000000e+00
 3.886075692466871290e-14 -2.614823505289742833e-12 0.000000000000000000e+00
 3.853015318909178144e-14 7.719568734243509311e-11 0.000000000000000000e+00
 3.917391855779578380e-15 -5.846018807931230299e-11 0.000000000000000000e+00
 -3.837455662481295549e-14 -1.966935642139233664e-11 0.000000000000000000e+00
 -1.941814561251010984e-14 -3.184563723834799021e-11 0.000000000000000000e+00
 -1.889877719650576854e-14 2.307880449248234100e-11 0.000000000000000000e+00
 </DataArray>
</CellData>
</Piece>
</UnstructuredGrid>
</VTKFile>
