<VTKFile type="UnstructuredGrid" byte_order="BigEndian">
<UnstructuredGrid><Piece NumberOfPoints="10" NumberOfCells="4">
<Points>
 <DataArray type="Float32" NumberOfComponents="3" format="ascii">
 8.574999809265136719e+00 0.000000000000000000e+00 0.000000000000000000e+00
 8.580855369567871094e+00 0.000000000000000000e+00 0.000000000000000000e+00
 8.586710929870605469e+00 0.000000000000000000e+00 0.000000000000000000e+00
 8.592566490173339844e+00 0.000000000000000000e+00 0.000000000000000000e+00
 8.598422050476074219e+00 0.000000000000000000e+00 0.000000000000000000e+00
 8.574999809265136719e+00 4.250000044703483582e-02 0.000000000000000000e+00
 8.580855369567871094e+00 4.274500161409378052e-02 0.000000000000000000e+00
 8.586710929870605469e+00 4.298999905586242676e-02 0.000000000000000000e+00
 8.592566490173339844e+00 4.323500022292137146e-02 0.000000000000000000e+00
 8.598422050476074219e+00 4.348000138998031616e-02 0.000000000000000000e+00
 </DataArray>
</Points>
<Cells>
 <DataArray type="Int32" Name="connectivity" format="ascii">
 0 1 6 5
 1 2 7 6
 2 3 8 7
 3 4 9 8
 </DataArray>
 <DataArray type="Int32" Name="offsets" format="ascii">
 4
 8
 12
 16
 </DataArray>
 <DataArray type="UInt8" Name="types" format="ascii">
 9
 9
 9
 9
 </DataArray>
</Cells>
<CellData>
 <DataArray Name="pos.x" type="Float32" NumberOfComponents="1" format="ascii">
 8.577930554851674216e+00
 8.583786038820736763e+00
 8.589641522973359145e+00
 8.595497007303842807e+00
 </DataArray>
 <DataArray Name="pos.y" type="Float32" NumberOfComponents="1" format="ascii">
 2.131130867890463146e-02
 2.143380834353827633e-02
 2.155630801198660240e-02
 2.167880768417537393e-02
 </DataArray>
 <DataArray Name="pos.z" type="Float32" NumberOfComponents="1" format="ascii">
 0.000000000000000000e+00
 0.000000000000000000e+00
 0.000000000000000000e+00
 0.000000000000000000e+00
 </DataArray>
 <DataArray Name="volume" type="Float32" NumberOfComponents="1" format="ascii">
 5.318792213772123290e-06
 5.380114083911243875e-06
 5.441787430436255499e-06
 5.503812253347094635e-06
 </DataArray>
 <DataArray Name="rho" type="Float32" NumberOfComponents="1" format="ascii">
 5.044996576646748956e-03
 4.924316046795809178e-03
 4.805882418298743769e-03
 4.689668468043807839e-03
 </DataArray>
 <DataArray Name="vel.x" type="Float32" NumberOfComponents="1" format="ascii">
 1.088938015969683693e+04
 1.089425463175158075e+04
 1.089924835048761997e+04
 1.090436112239337672e+04
 </DataArray>
 <DataArray Name="vel.y" type="Float32" NumberOfComponents="1" format="ascii">
 2.058801038305998077e+01
 4.044862747358831001e+01
 5.960101949760228024e+01
 7.806427854643924036e+01
 </DataArray>
 <DataArray Name="vel.z" type="Float32" NumberOfComponents="1" format="ascii">
 0.000000000000000000e+00
 0.000000000000000000e+00
 0.000000000000000000e+00
 0.000000000000000000e+00
 </DataArray>
 <DataArray Name="p" type="Float32" NumberOfComponents="1" format="ascii">
 1.926715063880455273e+04
 1.901673781798686105e+04
 1.877026972298471082e+04
 1.852767260367401104e+04
 </DataArray>
 <DataArray Name="a" type="Float32" NumberOfComponents="1" format="ascii">
 2.121021658558412582e+03
 2.131571269110184858e+03
 2.142393035550711829e+03
 2.153496938205434162e+03
 </DataArray>
 <DataArray Name="mu" type="Float32" NumberOfComponents="1" format="ascii">
 1.853126952258717352e-05
 1.853126952258717352e-05
 1.853126952258717352e-05
 1.853126952258717352e-05
 </DataArray>
 <DataArray Name="k" type="Float32" NumberOfComponents="1" format="ascii">
 2.626199291280435430e-02
 2.626199291280435430e-02
 2.626199291280435430e-02
 2.626199291280435430e-02
 </DataArray>
 <DataArray Name="mu_t" type="Float32" NumberOfComponents="1" format="ascii">
 0.000000000000000000e+00
 0.000000000000000000e+00
 0.000000000000000000e+00
 0.000000000000000000e+00
 </DataArray>
 <DataArray Name="k_t" type="Float32" NumberOfComponents="1" format="ascii">
 0.000000000000000000e+00
 0.000000000000000000e+00
 0.000000000000000000e+00
 0.000000000000000000e+00
 </DataArray>
 <DataArray Name="S" type="Float32" NumberOfComponents="1" format="ascii">
 0.000000000000000000e+00
 0.000000000000000000e+00
 0.000000000000000000e+00
 0.000000000000000000e+00
 </DataArray>
 <DataArray Name="massf[0]-Ar" type="Float32" NumberOfComponents="1" format="ascii">
 0.000000000000000000e+00
 0.000000000000000000e+00
 0.000000000000000000e+00
 0.000000000000000000e+00
 </DataArray>
 <DataArray Name="massf[1]-He" type="Float32" NumberOfComponents="1" format="ascii">
 6.218306275678924834e-04
 6.124822643832905644e-04
 6.031685436232213718e-04
 5.938874016489154896e-04
 </DataArray>
 <DataArray Name="massf[2]-N" type="Float32" NumberOfComponents="1" format="ascii">
 0.000000000000000000e+00
 0.000000000000000000e+00
 0.000000000000000000e+00
 0.000000000000000000e+00
 </DataArray>
 <DataArray Name="massf[3]-N2" type="Float32" NumberOfComponents="1" format="ascii">
 7.558574807377530513e-01
 7.558645511646069348e-01
 7.558715953904321383e-01
 7.558786149760166051e-01
 </DataArray>
 <DataArray Name="massf[4]-NO" type="Float32" NumberOfComponents="1" format="ascii">
 0.000000000000000000e+00
 0.000000000000000000e+00
 0.000000000000000000e+00
 0.000000000000000000e+00
 </DataArray>
 <DataArray Name="massf[5]-O" type="Float32" NumberOfComponents="1" format="ascii">
 0.000000000000000000e+00
 0.000000000000000000e+00
 0.000000000000000000e+00
 0.000000000000000000e+00
 </DataArray>
 <DataArray Name="massf[6]-O2" type="Float32" NumberOfComponents="1" format="ascii">
 2.435206886346790167e-01
 2.435229665710099134e-01
 2.435252360659445892e-01
 2.435274976223344157e-01
 </DataArray>
 <DataArray Name="dt_chem" type="Float32" NumberOfComponents="1" format="ascii">
 -1.000000000000000000e+00
 -1.000000000000000000e+00
 -1.000000000000000000e+00
 -1.000000000000000000e+00
 </DataArray>
 <DataArray Name="u" type="Float32" NumberOfComponents="1" format="ascii">
 1.490053891165608168e+07
 1.514269788503980078e+07
 1.539328730736477673e+07
 1.565255005232769623e+07
 </DataArray>
 <DataArray Name="T" type="Float32" NumberOfComponents="1" format="ascii">
 1.321887161746439051e+04
 1.336758689015081654e+04
 1.352026934353266188e+04
 1.367702582526323386e+04
 </DataArray>
 <DataArray Name="vel.vector" type="Float32" NumberOfComponents="3" format="ascii">
 1.088937988281250000e+04 2.058801078796386719e+01 0.000000000000000000e+00
 1.089425488281250000e+04 4.044862747192382812e+01 0.000000000000000000e+00
 1.089924804687500000e+04 5.960102081298828125e+01 0.000000000000000000e+00
 1.090436132812500000e+04 7.806427764892578125e+01 0.000000000000000000e+00
 </DataArray>
</CellData>
</Piece>
</UnstructuredGrid>
</VTKFile>
