<VTKFile type="UnstructuredGrid" byte_order="BigEndian">
<UnstructuredGrid><Piece NumberOfPoints="42" NumberOfCells="20">
<Points>
 <DataArray type="Float32" NumberOfComponents="3" format="ascii">
 9.210471153259277344e+00 0.000000000000000000e+00 0.000000000000000000e+00
 9.216885566711425781e+00 0.000000000000000000e+00 0.000000000000000000e+00
 9.223299980163574219e+00 0.000000000000000000e+00 0.000000000000000000e+00
 9.229714393615722656e+00 0.000000000000000000e+00 0.000000000000000000e+00
 9.236129760742187500e+00 0.000000000000000000e+00 0.000000000000000000e+00
 9.242544174194335938e+00 0.000000000000000000e+00 0.000000000000000000e+00
 9.248958587646484375e+00 0.000000000000000000e+00 0.000000000000000000e+00
 9.255373001098632812e+00 0.000000000000000000e+00 0.000000000000000000e+00
 9.261787414550781250e+00 0.000000000000000000e+00 0.000000000000000000e+00
 9.268202781677246094e+00 0.000000000000000000e+00 0.000000000000000000e+00
 9.274617195129394531e+00 0.000000000000000000e+00 0.000000000000000000e+00
 9.281031608581542969e+00 0.000000000000000000e+00 0.000000000000000000e+00
 9.287446022033691406e+00 0.000000000000000000e+00 0.000000000000000000e+00
 9.293860435485839844e+00 0.000000000000000000e+00 0.000000000000000000e+00
 9.300275802612304688e+00 0.000000000000000000e+00 0.000000000000000000e+00
 9.306690216064453125e+00 0.000000000000000000e+00 0.000000000000000000e+00
 9.313104629516601562e+00 0.000000000000000000e+00 0.000000000000000000e+00
 9.319519042968750000e+00 0.000000000000000000e+00 0.000000000000000000e+00
 9.325933456420898438e+00 0.000000000000000000e+00 0.000000000000000000e+00
 9.332348823547363281e+00 0.000000000000000000e+00 0.000000000000000000e+00
 9.338763236999511719e+00 0.000000000000000000e+00 0.000000000000000000e+00
 9.210471153259277344e+00 7.897099852561950684e-02 0.000000000000000000e+00
 9.216885566711425781e+00 7.930769771337509155e-02 0.000000000000000000e+00
 9.223299980163574219e+00 7.964439690113067627e-02 0.000000000000000000e+00
 9.229714393615722656e+00 7.998110353946685791e-02 0.000000000000000000e+00
 9.236129760742187500e+00 8.031780272722244263e-02 0.000000000000000000e+00
 9.242544174194335938e+00 8.065450191497802734e-02 0.000000000000000000e+00
 9.248958587646484375e+00 8.099120110273361206e-02 0.000000000000000000e+00
 9.255373001098632812e+00 8.132790029048919678e-02 0.000000000000000000e+00
 9.261787414550781250e+00 8.166459947824478149e-02 0.000000000000000000e+00
 9.268202781677246094e+00 8.200129866600036621e-02 0.000000000000000000e+00
 9.274617195129394531e+00 8.233799785375595093e-02 0.000000000000000000e+00
 9.281031608581542969e+00 8.267469704151153564e-02 0.000000000000000000e+00
 9.287446022033691406e+00 8.301140367984771729e-02 0.000000000000000000e+00
 9.293860435485839844e+00 8.334810286760330200e-02 0.000000000000000000e+00
 9.300275802612304688e+00 8.368480205535888672e-02 0.000000000000000000e+00
 9.306690216064453125e+00 8.402150124311447144e-02 0.000000000000000000e+00
 9.313104629516601562e+00 8.435820043087005615e-02 0.000000000000000000e+00
 9.319519042968750000e+00 8.469489961862564087e-02 0.000000000000000000e+00
 9.325933456420898438e+00 8.503159880638122559e-02 0.000000000000000000e+00
 9.332348823547363281e+00 8.536829799413681030e-02 0.000000000000000000e+00
 9.338763236999511719e+00 8.570499718189239502e-02 0.000000000000000000e+00
 </DataArray>
</Points>
<Cells>
 <DataArray type="Int32" Name="connectivity" format="ascii">
 0 1 22 21
 1 2 23 22
 2 3 24 23
 3 4 25 24
 4 5 26 25
 5 6 27 26
 6 7 28 27
 7 8 29 28
 8 9 30 29
 9 10 31 30
 10 11 32 31
 11 12 33 32
 12 13 34 33
 13 14 35 34
 14 15 36 35
 15 16 37 36
 16 17 38 37
 17 18 39 38
 18 19 40 39
 19 20 41 40
 </DataArray>
 <DataArray type="Int32" Name="offsets" format="ascii">
 4
 8
 12
 16
 20
 24
 28
 32
 36
 40
 44
 48
 52
 56
 60
 64
 68
 72
 76
 80
 </DataArray>
 <DataArray type="UInt8" Name="types" format="ascii">
 9
 9
 9
 9
 9
 9
 9
 9
 9
 9
 9
 9
 9
 9
 9
 9
 9
 9
 9
 9
 </DataArray>
</Cells>
<CellData>
 <DataArray Name="pos.x" type="Float32" NumberOfComponents="1" format="ascii">
 9.213680574255157296e+00
 9.220095164618202332e+00
 9.226509755068965646e+00
 9.232924345590305393e+00
 9.239338936199290586e+00
 9.245753526882877438e+00
 9.252168117643849499e+00
 9.258582708480647128e+00
 9.264997299396849684e+00
 9.271411890381134668e+00
 9.277826481444675366e+00
 9.284241072579485277e+00
 9.290655663783676133e+00
 9.297070255059932009e+00
 9.303484846407704012e+00
 9.309899437821183454e+00
 9.316314029307765310e+00
 9.322728620860885940e+00
 9.329143212479753089e+00
 9.335557804160885098e+00
 </DataArray>
 <DataArray Name="pos.y" type="Float32" NumberOfComponents="1" format="ascii">
 3.956973468738463062e-02
 3.973808443451085082e-02
 3.990643418379017510e-02
 4.007478393515015447e-02
 4.024313368861873186e-02
 4.041148344411918392e-02
 4.057983320166197450e-02
 4.074818296119439576e-02
 4.091653272272540581e-02
 4.108488248619353300e-02
 4.125323225159490542e-02
 4.142158201891499997e-02
 4.158993178810717339e-02
 4.175828155916327944e-02
 4.192663133205217635e-02
 4.209498110676925670e-02
 4.226333088327512144e-02
 4.243168066155746099e-02
 4.260003044159536151e-02
 4.276838022335004846e-02
 </DataArray>
 <DataArray Name="pos.z" type="Float32" NumberOfComponents="1" format="ascii">
 0.000000000000000000e+00
 0.000000000000000000e+00
 0.000000000000000000e+00
 0.000000000000000000e+00
 0.000000000000000000e+00
 0.000000000000000000e+00
 0.000000000000000000e+00
 0.000000000000000000e+00
 0.000000000000000000e+00
 0.000000000000000000e+00
 0.000000000000000000e+00
 0.000000000000000000e+00
 0.000000000000000000e+00
 0.000000000000000000e+00
 0.000000000000000000e+00
 0.000000000000000000e+00
 0.000000000000000000e+00
 0.000000000000000000e+00
 0.000000000000000000e+00
 0.000000000000000000e+00
 </DataArray>
 <DataArray Name="volume" type="Float32" NumberOfComponents="1" format="ascii">
 2.008746796713563613e-05
 2.025875640608386765e-05
 2.043077204829025738e-05
 2.060351489374925220e-05
 2.077698494246658481e-05
 2.095118219442500284e-05
 2.112610664964762692e-05
 2.130175830811113991e-05
 2.147813716983308218e-05
 2.165524323480762952e-05
 2.183307650304081620e-05
 2.201163697451451572e-05
 2.219092464925298709e-05
 2.237093952723176463e-05
 2.255168160846928653e-05
 2.273315089296569849e-05
 2.291534738070210152e-05
 2.309827107169740816e-05
 2.328192196595175054e-05
 2.346630006344579261e-05
 </DataArray>
 <DataArray Name="rho" type="Float32" NumberOfComponents="1" format="ascii">
 1.528855304762397147e-04
 1.528855304762397147e-04
 1.528855304762397147e-04
 1.528855304762397147e-04
 1.528855304762397147e-04
 1.528855304762397147e-04
 1.528855304762397147e-04
 1.528855304762397147e-04
 1.528855304762397147e-04
 1.528855304762397147e-04
 1.528855304762397147e-04
 1.528855304762397147e-04
 1.528855304762397147e-04
 1.528855304762397147e-04
 1.528855304762397147e-04
 1.528855304762397147e-04
 1.528855304762397147e-04
 1.528855304762397147e-04
 1.528855304762397147e-04
 1.528855304762397147e-04
 </DataArray>
 <DataArray Name="vel.x" type="Float32" NumberOfComponents="1" format="ascii">
 -4.830030703917466361e-13
 -5.575475557191903503e-13
 -9.318619288810931953e-13
 -6.646803893852098177e-13
 -9.640690889942484915e-13
 -8.134684424229260084e-13
 -7.967927299501008560e-13
 -6.564336453989836868e-13
 -8.384179539814280971e-13
 -7.052189314200596169e-13
 -6.554592013349657664e-13
 -8.868336653565417879e-13
 -8.114242471879950845e-13
 -7.074718677215235737e-13
 -5.252746294628188222e-13
 -7.771910742473780853e-13
 -9.454874955652008107e-13
 -1.152531233383953154e-12
 -1.265693016549186983e-12
 -8.149360810094833213e-13
 </DataArray>
 <DataArray Name="vel.y" type="Float32" NumberOfComponents="1" format="ascii">
 -3.201547217080911925e-11
 2.012164143022420203e-11
 -4.886939761986165622e-11
 4.178936657160336914e-11
 -4.202824476849513707e-11
 1.031373742058015847e-11
 -2.066341845672340190e-11
 3.169463068417029331e-11
 -3.567052582660549970e-11
 7.604934392562559916e-13
 2.070422522907946959e-11
 -2.922391706665881781e-11
 -9.860707619864020368e-12
 -8.166016173998685941e-12
 2.756485209078385010e-11
 -4.762337122208589396e-12
 -1.985736207014791090e-12
 -1.702058901413750269e-11
 -4.966951571845807950e-11
 3.259092366875678560e-12
 </DataArray>
 <DataArray Name="vel.z" type="Float32" NumberOfComponents="1" format="ascii">
 0.000000000000000000e+00
 0.000000000000000000e+00
 0.000000000000000000e+00
 0.000000000000000000e+00
 0.000000000000000000e+00
 0.000000000000000000e+00
 0.000000000000000000e+00
 0.000000000000000000e+00
 0.000000000000000000e+00
 0.000000000000000000e+00
 0.000000000000000000e+00
 0.000000000000000000e+00
 0.000000000000000000e+00
 0.000000000000000000e+00
 0.000000000000000000e+00
 0.000000000000000000e+00
 0.000000000000000000e+00
 0.000000000000000000e+00
 0.000000000000000000e+00
 0.000000000000000000e+00
 </DataArray>
 <DataArray Name="p" type="Float32" NumberOfComponents="1" format="ascii">
 1.319999999999999929e+01
 1.319999999999999929e+01
 1.319999999999999929e+01
 1.319999999999999929e+01
 1.319999999999999929e+01
 1.319999999999999929e+01
 1.319999999999999929e+01
 1.319999999999999929e+01
 1.319999999999999929e+01
 1.319999999999999929e+01
 1.319999999999999929e+01
 1.319999999999999929e+01
 1.319999999999999929e+01
 1.319999999999999929e+01
 1.319999999999999929e+01
 1.319999999999999929e+01
 1.319999999999999929e+01
 1.319999999999999929e+01
 1.319999999999999929e+01
 1.319999999999999929e+01
 </DataArray>
 <DataArray Name="a" type="Float32" NumberOfComponents="1" format="ascii">
 3.474749704973453390e+02
 3.474749704973453390e+02
 3.474749704973453390e+02
 3.474749704973453390e+02
 3.474749704973453390e+02
 3.474749704973453390e+02
 3.474749704973453390e+02
 3.474749704973453390e+02
 3.474749704973453390e+02
 3.474749704973453390e+02
 3.474749704973453390e+02
 3.474749704973453390e+02
 3.474749704973453390e+02
 3.474749704973453390e+02
 3.474749704973453390e+02
 3.474749704973453390e+02
 3.474749704973453390e+02
 3.474749704973453390e+02
 3.474749704973453390e+02
 3.474749704973453390e+02
 </DataArray>
 <DataArray Name="mu" type="Float32" NumberOfComponents="1" format="ascii">
 1.853126952258717352e-05
 1.853126952258717352e-05
 1.853126952258717352e-05
 1.853126952258717352e-05
 1.853126952258717352e-05
 1.853126952258717352e-05
 1.853126952258717352e-05
 1.853126952258717352e-05
 1.853126952258717352e-05
 1.853126952258717352e-05
 1.853126952258717352e-05
 1.853126952258717352e-05
 1.853126952258717352e-05
 1.853126952258717352e-05
 1.853126952258717352e-05
 1.853126952258717352e-05
 1.853126952258717352e-05
 1.853126952258717352e-05
 1.853126952258717352e-05
 1.853126952258717352e-05
 </DataArray>
 <DataArray Name="k" type="Float32" NumberOfComponents="1" format="ascii">
 2.626199291280435430e-02
 2.626199291280435430e-02
 2.626199291280435430e-02
 2.626199291280435430e-02
 2.626199291280435430e-02
 2.626199291280435430e-02
 2.626199291280435430e-02
 2.626199291280435430e-02
 2.626199291280435430e-02
 2.626199291280435430e-02
 2.626199291280435430e-02
 2.626199291280435430e-02
 2.626199291280435430e-02
 2.626199291280435430e-02
 2.626199291280435430e-02
 2.626199291280435430e-02
 2.626199291280435430e-02
 2.626199291280435430e-02
 2.626199291280435430e-02
 2.626199291280435430e-02
 </DataArray>
 <DataArray Name="mu_t" type="Float32" NumberOfComponents="1" format="ascii">
 0.000000000000000000e+00
 0.000000000000000000e+00
 0.000000000000000000e+00
 0.000000000000000000e+00
 0.000000000000000000e+00
 0.000000000000000000e+00
 0.000000000000000000e+00
 0.000000000000000000e+00
 0.000000000000000000e+00
 0.000000000000000000e+00
 0.000000000000000000e+00
 0.000000000000000000e+00
 0.000000000000000000e+00
 0.000000000000000000e+00
 0.000000000000000000e+00
 0.000000000000000000e+00
 0.000000000000000000e+00
 0.000000000000000000e+00
 0.000000000000000000e+00
 0.000000000000000000e+00
 </DataArray>
 <DataArray Name="k_t" type="Float32" NumberOfComponents="1" format="ascii">
 0.000000000000000000e+00
 0.000000000000000000e+00
 0.000000000000000000e+00
 0.000000000000000000e+00
 0.000000000000000000e+00
 0.000000000000000000e+00
 0.000000000000000000e+00
 0.000000000000000000e+00
 0.000000000000000000e+00
 0.000000000000000000e+00
 0.000000000000000000e+00
 0.000000000000000000e+00
 0.000000000000000000e+00
 0.000000000000000000e+00
 0.000000000000000000e+00
 0.000000000000000000e+00
 0.000000000000000000e+00
 0.000000000000000000e+00
 0.000000000000000000e+00
 0.000000000000000000e+00
 </DataArray>
 <DataArray Name="S" type="Float32" NumberOfComponents="1" format="ascii">
 0.000000000000000000e+00
 0.000000000000000000e+00
 0.000000000000000000e+00
 0.000000000000000000e+00
 0.000000000000000000e+00
 0.000000000000000000e+00
 0.000000000000000000e+00
 0.000000000000000000e+00
 0.000000000000000000e+00
 0.000000000000000000e+00
 0.000000000000000000e+00
 0.000000000000000000e+00
 0.000000000000000000e+00
 0.000000000000000000e+00
 0.000000000000000000e+00
 0.000000000000000000e+00
 0.000000000000000000e+00
 0.000000000000000000e+00
 0.000000000000000000e+00
 0.000000000000000000e+00
 </DataArray>
 <DataArray Name="massf[0]-Ar" type="Float32" NumberOfComponents="1" format="ascii">
 0.000000000000000000e+00
 0.000000000000000000e+00
 0.000000000000000000e+00
 0.000000000000000000e+00
 0.000000000000000000e+00
 0.000000000000000000e+00
 0.000000000000000000e+00
 0.000000000000000000e+00
 0.000000000000000000e+00
 0.000000000000000000e+00
 0.000000000000000000e+00
 0.000000000000000000e+00
 0.000000000000000000e+00
 0.000000000000000000e+00
 0.000000000000000000e+00
 0.000000000000000000e+00
 0.000000000000000000e+00
 0.000000000000000000e+00
 0.000000000000000000e+00
 0.000000000000000000e+00
 </DataArray>
 <DataArray Name="massf[1]-He" type="Float32" NumberOfComponents="1" format="ascii">
 0.000000000000000000e+00
 0.000000000000000000e+00
 0.000000000000000000e+00
 0.000000000000000000e+00
 0.000000000000000000e+00
 0.000000000000000000e+00
 0.000000000000000000e+00
 0.000000000000000000e+00
 0.000000000000000000e+00
 0.000000000000000000e+00
 0.000000000000000000e+00
 0.000000000000000000e+00
 0.000000000000000000e+00
 0.000000000000000000e+00
 0.000000000000000000e+00
 0.000000000000000000e+00
 0.000000000000000000e+00
 0.000000000000000000e+00
 0.000000000000000000e+00
 0.000000000000000000e+00
 </DataArray>
 <DataArray Name="massf[2]-N" type="Float32" NumberOfComponents="1" format="ascii">
 0.000000000000000000e+00
 0.000000000000000000e+00
 0.000000000000000000e+00
 0.000000000000000000e+00
 0.000000000000000000e+00
 0.000000000000000000e+00
 0.000000000000000000e+00
 0.000000000000000000e+00
 0.000000000000000000e+00
 0.000000000000000000e+00
 0.000000000000000000e+00
 0.000000000000000000e+00
 0.000000000000000000e+00
 0.000000000000000000e+00
 0.000000000000000000e+00
 0.000000000000000000e+00
 0.000000000000000000e+00
 0.000000000000000000e+00
 0.000000000000000000e+00
 0.000000000000000000e+00
 </DataArray>
 <DataArray Name="massf[3]-N2" type="Float32" NumberOfComponents="1" format="ascii">
 7.563277885211407980e-01
 7.563277885211407980e-01
 7.563277885211407980e-01
 7.563277885211407980e-01
 7.563277885211407980e-01
 7.563277885211407980e-01
 7.563277885211407980e-01
 7.563277885211407980e-01
 7.563277885211407980e-01
 7.563277885211407980e-01
 7.563277885211407980e-01
 7.563277885211407980e-01
 7.563277885211407980e-01
 7.563277885211407980e-01
 7.563277885211407980e-01
 7.563277885211407980e-01
 7.563277885211407980e-01
 7.563277885211407980e-01
 7.563277885211407980e-01
 7.563277885211407980e-01
 </DataArray>
 <DataArray Name="massf[4]-NO" type="Float32" NumberOfComponents="1" format="ascii">
 0.000000000000000000e+00
 0.000000000000000000e+00
 0.000000000000000000e+00
 0.000000000000000000e+00
 0.000000000000000000e+00
 0.000000000000000000e+00
 0.000000000000000000e+00
 0.000000000000000000e+00
 0.000000000000000000e+00
 0.000000000000000000e+00
 0.000000000000000000e+00
 0.000000000000000000e+00
 0.000000000000000000e+00
 0.000000000000000000e+00
 0.000000000000000000e+00
 0.000000000000000000e+00
 0.000000000000000000e+00
 0.000000000000000000e+00
 0.000000000000000000e+00
 0.000000000000000000e+00
 </DataArray>
 <DataArray Name="massf[5]-O" type="Float32" NumberOfComponents="1" format="ascii">
 0.000000000000000000e+00
 0.000000000000000000e+00
 0.000000000000000000e+00
 0.000000000000000000e+00
 0.000000000000000000e+00
 0.000000000000000000e+00
 0.000000000000000000e+00
 0.000000000000000000e+00
 0.000000000000000000e+00
 0.000000000000000000e+00
 0.000000000000000000e+00
 0.000000000000000000e+00
 0.000000000000000000e+00
 0.000000000000000000e+00
 0.000000000000000000e+00
 0.000000000000000000e+00
 0.000000000000000000e+00
 0.000000000000000000e+00
 0.000000000000000000e+00
 0.000000000000000000e+00
 </DataArray>
 <DataArray Name="massf[6]-O2" type="Float32" NumberOfComponents="1" format="ascii">
 2.436722114788592020e-01
 2.436722114788592020e-01
 2.436722114788592020e-01
 2.436722114788592020e-01
 2.436722114788592020e-01
 2.436722114788592020e-01
 2.436722114788592020e-01
 2.436722114788592020e-01
 2.436722114788592020e-01
 2.436722114788592020e-01
 2.436722114788592020e-01
 2.436722114788592020e-01
 2.436722114788592020e-01
 2.436722114788592020e-01
 2.436722114788592020e-01
 2.436722114788592020e-01
 2.436722114788592020e-01
 2.436722114788592020e-01
 2.436722114788592020e-01
 2.436722114788592020e-01
 </DataArray>
 <DataArray Name="dt_chem" type="Float32" NumberOfComponents="1" format="ascii">
 -1.000000000000000000e+00
 -1.000000000000000000e+00
 -1.000000000000000000e+00
 -1.000000000000000000e+00
 -1.000000000000000000e+00
 -1.000000000000000000e+00
 -1.000000000000000000e+00
 -1.000000000000000000e+00
 -1.000000000000000000e+00
 -1.000000000000000000e+00
 -1.000000000000000000e+00
 -1.000000000000000000e+00
 -1.000000000000000000e+00
 -1.000000000000000000e+00
 -1.000000000000000000e+00
 -1.000000000000000000e+00
 -1.000000000000000000e+00
 -1.000000000000000000e+00
 -1.000000000000000000e+00
 -1.000000000000000000e+00
 </DataArray>
 <DataArray Name="u" type="Float32" NumberOfComponents="1" format="ascii">
 -8.447044764501467580e+04
 -8.447044764501467580e+04
 -8.447044764501467580e+04
 -8.447044764501467580e+04
 -8.447044764501467580e+04
 -8.447044764501467580e+04
 -8.447044764501467580e+04
 -8.447044764501467580e+04
 -8.447044764501467580e+04
 -8.447044764501467580e+04
 -8.447044764501467580e+04
 -8.447044764501467580e+04
 -8.447044764501467580e+04
 -8.447044764501467580e+04
 -8.447044764501467580e+04
 -8.447044764501467580e+04
 -8.447044764501467580e+04
 -8.447044764501467580e+04
 -8.447044764501467580e+04
 -8.447044764501467580e+04
 </DataArray>
 <DataArray Name="T" type="Float32" NumberOfComponents="1" format="ascii">
 3.000000000000000000e+02
 3.000000000000000000e+02
 3.000000000000000000e+02
 3.000000000000000000e+02
 3.000000000000000000e+02
 3.000000000000000000e+02
 3.000000000000000000e+02
 3.000000000000000000e+02
 3.000000000000000000e+02
 3.000000000000000000e+02
 3.000000000000000000e+02
 3.000000000000000000e+02
 3.000000000000000000e+02
 3.000000000000000000e+02
 3.000000000000000000e+02
 3.000000000000000000e+02
 3.000000000000000000e+02
 3.000000000000000000e+02
 3.000000000000000000e+02
 3.000000000000000000e+02
 </DataArray>
 <DataArray Name="vel.vector" type="Float32" NumberOfComponents="3" format="ascii">
 -4.830030689642605957e-13 -3.201547360554002353e-11 0.000000000000000000e+00
 -5.575475519638273258e-13 2.012164219966638967e-11 0.000000000000000000e+00
 -9.318619010115214429e-13 -4.886939811155066593e-11 0.000000000000000000e+00
 -6.646803875527684813e-13 4.178936710563796453e-11 0.000000000000000000e+00
 -9.640691023271585891e-13 -4.202824546717387477e-11 0.000000000000000000e+00
 -8.134684332389285899e-13 1.031373771109844739e-11 0.000000000000000000e+00
 -7.967927533047980404e-13 -2.066341889261913423e-11 0.000000000000000000e+00
 -6.564336205681919889e-13 3.169462955976420915e-11 0.000000000000000000e+00
 -8.384179310018391451e-13 -3.567052556108230021e-11 0.000000000000000000e+00
 -7.052189236224359892e-13 7.604934477295488549e-13 0.000000000000000000e+00
 -6.554591938656706418e-13 2.070422479294453666e-11 0.000000000000000000e+00
 -8.868336837455914612e-13 -2.922391842408167406e-11 0.000000000000000000e+00
 -8.114242242528157956e-13 -9.860707736453200312e-12 0.000000000000000000e+00
 -7.074718415267522431e-13 -8.166016474131509995e-12 0.000000000000000000e+00
 -5.252746479965375581e-13 2.756485144306264345e-11 0.000000000000000000e+00
 -7.771910827576722358e-13 -4.762337225960866505e-12 0.000000000000000000e+00
 -9.454875033940157714e-13 -1.985736228227175104e-12 0.000000000000000000e+00
 -1.152531195480754889e-12 -1.702058979868859012e-11 0.000000000000000000e+00
 -1.265693062510453437e-12 -4.966951502871630453e-11 0.000000000000000000e+00
 -8.149360635097135930e-13 3.259092431692756087e-12 0.000000000000000000e+00
 </DataArray>
</CellData>
</Piece>
</UnstructuredGrid>
</VTKFile>
