<VTKFile type="UnstructuredGrid" byte_order="BigEndian">
<UnstructuredGrid><Piece NumberOfPoints="60" NumberOfCells="29">
<Points>
 <DataArray type="Float32" NumberOfComponents="3" format="ascii">
 9.634305953979492188e+00 0.000000000000000000e+00 0.000000000000000000e+00
 9.640802383422851562e+00 0.000000000000000000e+00 0.000000000000000000e+00
 9.647297859191894531e+00 0.000000000000000000e+00 0.000000000000000000e+00
 9.653794288635253906e+00 0.000000000000000000e+00 0.000000000000000000e+00
 9.660289764404296875e+00 0.000000000000000000e+00 0.000000000000000000e+00
 9.666786193847656250e+00 0.000000000000000000e+00 0.000000000000000000e+00
 9.673281669616699219e+00 0.000000000000000000e+00 0.000000000000000000e+00
 9.679778099060058594e+00 0.000000000000000000e+00 0.000000000000000000e+00
 9.686273574829101562e+00 0.000000000000000000e+00 0.000000000000000000e+00
 9.692770004272460938e+00 0.000000000000000000e+00 0.000000000000000000e+00
 9.699266433715820312e+00 0.000000000000000000e+00 0.000000000000000000e+00
 9.705761909484863281e+00 0.000000000000000000e+00 0.000000000000000000e+00
 9.712258338928222656e+00 0.000000000000000000e+00 0.000000000000000000e+00
 9.718753814697265625e+00 0.000000000000000000e+00 0.000000000000000000e+00
 9.725250244140625000e+00 0.000000000000000000e+00 0.000000000000000000e+00
 9.731745719909667969e+00 0.000000000000000000e+00 0.000000000000000000e+00
 9.738242149353027344e+00 0.000000000000000000e+00 0.000000000000000000e+00
 9.744737625122070312e+00 0.000000000000000000e+00 0.000000000000000000e+00
 9.751234054565429688e+00 0.000000000000000000e+00 0.000000000000000000e+00
 9.757729530334472656e+00 0.000000000000000000e+00 0.000000000000000000e+00
 9.764225959777832031e+00 0.000000000000000000e+00 0.000000000000000000e+00
 9.770722389221191406e+00 0.000000000000000000e+00 0.000000000000000000e+00
 9.777217864990234375e+00 0.000000000000000000e+00 0.000000000000000000e+00
 9.783714294433593750e+00 0.000000000000000000e+00 0.000000000000000000e+00
 9.790209770202636719e+00 0.000000000000000000e+00 0.000000000000000000e+00
 9.796706199645996094e+00 0.000000000000000000e+00 0.000000000000000000e+00
 9.803201675415039062e+00 0.000000000000000000e+00 0.000000000000000000e+00
 9.809698104858398438e+00 0.000000000000000000e+00 0.000000000000000000e+00
 9.816193580627441406e+00 0.000000000000000000e+00 0.000000000000000000e+00
 9.822690010070800781e+00 0.000000000000000000e+00 0.000000000000000000e+00
 9.634305953979492188e+00 9.674900025129318237e-02 0.000000000000000000e+00
 9.640802383422851562e+00 9.685514122247695923e-02 0.000000000000000000e+00
 9.647297859191894531e+00 9.696127474308013916e-02 0.000000000000000000e+00
 9.653794288635253906e+00 9.706741571426391602e-02 0.000000000000000000e+00
 9.660289764404296875e+00 9.717354923486709595e-02 0.000000000000000000e+00
 9.666786193847656250e+00 9.727969020605087280e-02 0.000000000000000000e+00
 9.673281669616699219e+00 9.738583117723464966e-02 0.000000000000000000e+00
 9.679778099060058594e+00 9.749196469783782959e-02 0.000000000000000000e+00
 9.686273574829101562e+00 9.759810566902160645e-02 0.000000000000000000e+00
 9.692770004272460938e+00 9.770423918962478638e-02 0.000000000000000000e+00
 9.699266433715820312e+00 9.781038016080856323e-02 0.000000000000000000e+00
 9.705761909484863281e+00 9.791651368141174316e-02 0.000000000000000000e+00
 9.712258338928222656e+00 9.802265465259552002e-02 0.000000000000000000e+00
 9.718753814697265625e+00 9.812879562377929688e-02 0.000000000000000000e+00
 9.725250244140625000e+00 9.823492914438247681e-02 0.000000000000000000e+00
 9.731745719909667969e+00 9.834107011556625366e-02 0.000000000000000000e+00
 9.738242149353027344e+00 9.844720363616943359e-02 0.000000000000000000e+00
 9.744737625122070312e+00 9.855334460735321045e-02 0.000000000000000000e+00
 9.751234054565429688e+00 9.865948557853698730e-02 0.000000000000000000e+00
 9.757729530334472656e+00 9.876561909914016724e-02 0.000000000000000000e+00
 9.764225959777832031e+00 9.887176007032394409e-02 0.000000000000000000e+00
 9.770722389221191406e+00 9.897789359092712402e-02 0.000000000000000000e+00
 9.777217864990234375e+00 9.908403456211090088e-02 0.000000000000000000e+00
 9.783714294433593750e+00 9.919017553329467773e-02 0.000000000000000000e+00
 9.790209770202636719e+00 9.929630905389785767e-02 0.000000000000000000e+00
 9.796706199645996094e+00 9.940245002508163452e-02 0.000000000000000000e+00
 9.803201675415039062e+00 9.950858354568481445e-02 0.000000000000000000e+00
 9.809698104858398438e+00 9.961472451686859131e-02 0.000000000000000000e+00
 9.816193580627441406e+00 9.972086548805236816e-02 0.000000000000000000e+00
 9.822690010070800781e+00 9.982699900865554810e-02 0.000000000000000000e+00
 </DataArray>
</Points>
<Cells>
 <DataArray type="Int32" Name="connectivity" format="ascii">
 0 1 31 30
 1 2 32 31
 2 3 33 32
 3 4 34 33
 4 5 35 34
 5 6 36 35
 6 7 37 36
 7 8 38 37
 8 9 39 38
 9 10 40 39
 10 11 41 40
 11 12 42 41
 12 13 43 42
 13 14 44 43
 14 15 45 44
 15 16 46 45
 16 17 47 46
 17 18 48 47
 18 19 49 48
 19 20 50 49
 20 21 51 50
 21 22 52 51
 22 23 53 52
 23 24 54 53
 24 25 55 54
 25 26 56 55
 26 27 57 56
 27 28 58 57
 28 29 59 58
 </DataArray>
 <DataArray type="Int32" Name="offsets" format="ascii">
 4
 8
 12
 16
 20
 24
 28
 32
 36
 40
 44
 48
 52
 56
 60
 64
 68
 72
 76
 80
 84
 88
 92
 96
 100
 104
 108
 112
 116
 </DataArray>
 <DataArray type="UInt8" Name="types" format="ascii">
 9
 9
 9
 9
 9
 9
 9
 9
 9
 9
 9
 9
 9
 9
 9
 9
 9
 9
 9
 9
 9
 9
 9
 9
 9
 9
 9
 9
 9
 </DataArray>
</Cells>
<CellData>
 <DataArray Name="pos.x" type="Float32" NumberOfComponents="1" format="ascii">
 9.637554593541606707e+00
 9.644050592891172613e+00
 9.650546592243378186e+00
 9.657042591594368730e+00
 9.663538590949091400e+00
 9.670034590306645583e+00
 9.676530589661362924e+00
 9.683026589018602692e+00
 9.689522588379832158e+00
 9.696018587742422312e+00
 9.702514587104422716e+00
 9.709010586468377113e+00
 9.715506585833162845e+00
 9.722002585197875746e+00
 9.728498584568148644e+00
 9.734994583937476520e+00
 9.741490583310163487e+00
 9.747986582679285306e+00
 9.754482582051444695e+00
 9.760978581429268885e+00
 9.767474580805972195e+00
 9.773970580182480106e+00
 9.780466579561398532e+00
 9.786962578939201407e+00
 9.793458578321844854e+00
 9.799954577706429859e+00
 9.806450577089892207e+00
 9.812946576476331728e+00
 9.819442575860581002e+00
 </DataArray>
 <DataArray Name="pos.y" type="Float32" NumberOfComponents="1" format="ascii">
 4.840103933168554695e-02
 4.845410829188747520e-02
 4.850717725211129566e-02
 4.856024621233163974e-02
 4.861331517257863610e-02
 4.866638413282865089e-02
 4.871945309309571454e-02
 4.877252205336865543e-02
 4.882559101365198384e-02
 4.887865997396376866e-02
 4.893172893426122466e-02
 4.898479789459075223e-02
 4.903786685492044634e-02
 4.909093581525045963e-02
 4.914400477562334141e-02
 4.919707373598539851e-02
 4.925014269636711350e-02
 4.930321165674278472e-02
 4.935628061714162490e-02
 4.940934957756138585e-02
 4.946241853797861410e-02
 4.951548749840672253e-02
 4.956855645885428763e-02
 4.962162541929915349e-02
 4.967469437976990837e-02
 4.972776334024490291e-02
 4.978083230073061111e-02
 4.983390126122862890e-02
 4.988697022173225332e-02
 </DataArray>
 <DataArray Name="pos.z" type="Float32" NumberOfComponents="1" format="ascii">
 0.000000000000000000e+00
 0.000000000000000000e+00
 0.000000000000000000e+00
 0.000000000000000000e+00
 0.000000000000000000e+00
 0.000000000000000000e+00
 0.000000000000000000e+00
 0.000000000000000000e+00
 0.000000000000000000e+00
 0.000000000000000000e+00
 0.000000000000000000e+00
 0.000000000000000000e+00
 0.000000000000000000e+00
 0.000000000000000000e+00
 0.000000000000000000e+00
 0.000000000000000000e+00
 0.000000000000000000e+00
 0.000000000000000000e+00
 0.000000000000000000e+00
 0.000000000000000000e+00
 0.000000000000000000e+00
 0.000000000000000000e+00
 0.000000000000000000e+00
 0.000000000000000000e+00
 0.000000000000000000e+00
 0.000000000000000000e+00
 0.000000000000000000e+00
 0.000000000000000000e+00
 0.000000000000000000e+00
 </DataArray>
 <DataArray Name="volume" type="Float32" NumberOfComponents="1" format="ascii">
 3.043584357504356484e-05
 3.050262248068648992e-05
 3.056947456549436240e-05
 3.063639982939200980e-05
 3.070339827246311220e-05
 3.077046989466588039e-05
 3.083761469594970922e-05
 3.090483267641568022e-05
 3.097212383599636957e-05
 3.103948817470865695e-05
 3.110692569255251523e-05
 3.117443638951944022e-05
 3.124202026564354363e-05
 3.130967732086506559e-05
 3.137740755524383372e-05
 3.144521096874562790e-05
 3.151308756137901333e-05
 3.158103733314397644e-05
 3.164906028403187074e-05
 3.171715641406867641e-05
 3.178532572322841326e-05
 3.185356821151971425e-05
 3.192188387894260649e-05
 3.199027272548835536e-05
 3.205873475119193995e-05
 3.212726995600083743e-05
 3.219587833994127195e-05
 3.226455990303090922e-05
 3.233331464524332182e-05
 </DataArray>
 <DataArray Name="rho" type="Float32" NumberOfComponents="1" format="ascii">
 1.528855304762397147e-04
 1.528855304762397147e-04
 1.528855304762397147e-04
 1.528855304762397147e-04
 1.528855304762397147e-04
 1.528855304762397147e-04
 1.528855304762397147e-04
 1.528855304762397147e-04
 1.528855304762397147e-04
 1.528855304762397147e-04
 1.528855304762397147e-04
 1.528855304762397147e-04
 1.528855304762397147e-04
 1.528855304762397147e-04
 1.528855304762397147e-04
 1.528855304762397147e-04
 1.528855304762397147e-04
 1.528855304762397147e-04
 1.528855304762397147e-04
 1.528855304762397147e-04
 1.528855304762397147e-04
 1.528855304762397147e-04
 1.528855304762397147e-04
 1.528855304762397147e-04
 1.528855304762397147e-04
 1.528855304762397147e-04
 1.528855304762397147e-04
 1.528855304762397147e-04
 1.528855304762397147e-04
 </DataArray>
 <DataArray Name="vel.x" type="Float32" NumberOfComponents="1" format="ascii">
 3.852970433766550234e-14
 3.873451325733392247e-14
 3.791208713306524924e-14
 1.627988133350617941e-13
 1.352816013557649727e-13
 1.931578239899657346e-13
 1.930601640536795062e-13
 1.925810192483015030e-13
 1.931129840932995158e-13
 3.847079482553000134e-14
 1.233406757077399967e-13
 1.968676274727259855e-14
 1.876874017071137872e-14
 1.942052689449496318e-14
 -1.352139855166505984e-13
 -1.155103000764148239e-13
 -1.951904730280969497e-14
 3.890547595571427214e-14
 1.052085654579060761e-13
 1.917141738323938070e-14
 1.159725980274890473e-13
 1.934798307557403515e-13
 1.924039490260416063e-13
 2.709085944708345388e-13
 2.229908373599477006e-13
 1.961230124734890215e-13
 2.118761537266497253e-13
 1.931740609348158741e-13
 1.923657601434832956e-13
 </DataArray>
 <DataArray Name="vel.y" type="Float32" NumberOfComponents="1" format="ascii">
 -1.625836323594735579e-11
 7.163820687771541480e-12
 -2.191936300998097547e-11
 2.556004617962546649e-11
 -3.693304628338102174e-12
 1.012267795383348723e-11
 -4.431339953973860430e-12
 9.667943666284731565e-12
 2.854237245636184961e-11
 -3.947069947684970947e-11
 2.294503470062883368e-11
 -2.012510233345984923e-11
 -7.390344681447918984e-12
 6.042887807391294673e-11
 -3.172518188273162629e-11
 -1.262294959923807681e-11
 -3.729438482913801789e-11
 2.432625086413561896e-11
 2.515855231422928508e-11
 -2.389415024570259403e-11
 -5.114755450865916845e-12
 1.330646617712721628e-11
 -1.067889417471192742e-11
 3.277170710711020570e-11
 1.026816310674716273e-12
 2.163670523405914017e-12
 3.300762091701620459e-12
 -3.294357320170664908e-12
 1.489834215803002961e-11
 </DataArray>
 <DataArray Name="vel.z" type="Float32" NumberOfComponents="1" format="ascii">
 0.000000000000000000e+00
 0.000000000000000000e+00
 0.000000000000000000e+00
 0.000000000000000000e+00
 0.000000000000000000e+00
 0.000000000000000000e+00
 0.000000000000000000e+00
 0.000000000000000000e+00
 0.000000000000000000e+00
 0.000000000000000000e+00
 0.000000000000000000e+00
 0.000000000000000000e+00
 0.000000000000000000e+00
 0.000000000000000000e+00
 0.000000000000000000e+00
 0.000000000000000000e+00
 0.000000000000000000e+00
 0.000000000000000000e+00
 0.000000000000000000e+00
 0.000000000000000000e+00
 0.000000000000000000e+00
 0.000000000000000000e+00
 0.000000000000000000e+00
 0.000000000000000000e+00
 0.000000000000000000e+00
 0.000000000000000000e+00
 0.000000000000000000e+00
 0.000000000000000000e+00
 0.000000000000000000e+00
 </DataArray>
 <DataArray Name="p" type="Float32" NumberOfComponents="1" format="ascii">
 1.319999999999999929e+01
 1.319999999999999929e+01
 1.319999999999999929e+01
 1.319999999999999929e+01
 1.319999999999999929e+01
 1.319999999999999929e+01
 1.319999999999999929e+01
 1.319999999999999929e+01
 1.319999999999999929e+01
 1.319999999999999929e+01
 1.319999999999999929e+01
 1.319999999999999929e+01
 1.319999999999999929e+01
 1.319999999999999929e+01
 1.319999999999999929e+01
 1.319999999999999929e+01
 1.319999999999999929e+01
 1.319999999999999929e+01
 1.319999999999999929e+01
 1.319999999999999929e+01
 1.319999999999999929e+01
 1.319999999999999929e+01
 1.319999999999999929e+01
 1.319999999999999929e+01
 1.319999999999999929e+01
 1.319999999999999929e+01
 1.319999999999999929e+01
 1.319999999999999929e+01
 1.319999999999999929e+01
 </DataArray>
 <DataArray Name="a" type="Float32" NumberOfComponents="1" format="ascii">
 3.474749704973453390e+02
 3.474749704973453390e+02
 3.474749704973453390e+02
 3.474749704973453390e+02
 3.474749704973453390e+02
 3.474749704973453390e+02
 3.474749704973453390e+02
 3.474749704973453390e+02
 3.474749704973453390e+02
 3.474749704973453390e+02
 3.474749704973453390e+02
 3.474749704973453390e+02
 3.474749704973453390e+02
 3.474749704973453390e+02
 3.474749704973453390e+02
 3.474749704973453390e+02
 3.474749704973453390e+02
 3.474749704973453390e+02
 3.474749704973453390e+02
 3.474749704973453390e+02
 3.474749704973453390e+02
 3.474749704973453390e+02
 3.474749704973453390e+02
 3.474749704973453390e+02
 3.474749704973453390e+02
 3.474749704973453390e+02
 3.474749704973453390e+02
 3.474749704973453390e+02
 3.474749704973453390e+02
 </DataArray>
 <DataArray Name="mu" type="Float32" NumberOfComponents="1" format="ascii">
 1.853126952258717352e-05
 1.853126952258717352e-05
 1.853126952258717352e-05
 1.853126952258717352e-05
 1.853126952258717352e-05
 1.853126952258717352e-05
 1.853126952258717352e-05
 1.853126952258717352e-05
 1.853126952258717352e-05
 1.853126952258717352e-05
 1.853126952258717352e-05
 1.853126952258717352e-05
 1.853126952258717352e-05
 1.853126952258717352e-05
 1.853126952258717352e-05
 1.853126952258717352e-05
 1.853126952258717352e-05
 1.853126952258717352e-05
 1.853126952258717352e-05
 1.853126952258717352e-05
 1.853126952258717352e-05
 1.853126952258717352e-05
 1.853126952258717352e-05
 1.853126952258717352e-05
 1.853126952258717352e-05
 1.853126952258717352e-05
 1.853126952258717352e-05
 1.853126952258717352e-05
 1.853126952258717352e-05
 </DataArray>
 <DataArray Name="k" type="Float32" NumberOfComponents="1" format="ascii">
 2.626199291280435430e-02
 2.626199291280435430e-02
 2.626199291280435430e-02
 2.626199291280435430e-02
 2.626199291280435430e-02
 2.626199291280435430e-02
 2.626199291280435430e-02
 2.626199291280435430e-02
 2.626199291280435430e-02
 2.626199291280435430e-02
 2.626199291280435430e-02
 2.626199291280435430e-02
 2.626199291280435430e-02
 2.626199291280435430e-02
 2.626199291280435430e-02
 2.626199291280435430e-02
 2.626199291280435430e-02
 2.626199291280435430e-02
 2.626199291280435430e-02
 2.626199291280435430e-02
 2.626199291280435430e-02
 2.626199291280435430e-02
 2.626199291280435430e-02
 2.626199291280435430e-02
 2.626199291280435430e-02
 2.626199291280435430e-02
 2.626199291280435430e-02
 2.626199291280435430e-02
 2.626199291280435430e-02
 </DataArray>
 <DataArray Name="mu_t" type="Float32" NumberOfComponents="1" format="ascii">
 0.000000000000000000e+00
 0.000000000000000000e+00
 0.000000000000000000e+00
 0.000000000000000000e+00
 0.000000000000000000e+00
 0.000000000000000000e+00
 0.000000000000000000e+00
 0.000000000000000000e+00
 0.000000000000000000e+00
 0.000000000000000000e+00
 0.000000000000000000e+00
 0.000000000000000000e+00
 0.000000000000000000e+00
 0.000000000000000000e+00
 0.000000000000000000e+00
 0.000000000000000000e+00
 0.000000000000000000e+00
 0.000000000000000000e+00
 0.000000000000000000e+00
 0.000000000000000000e+00
 0.000000000000000000e+00
 0.000000000000000000e+00
 0.000000000000000000e+00
 0.000000000000000000e+00
 0.000000000000000000e+00
 0.000000000000000000e+00
 0.000000000000000000e+00
 0.000000000000000000e+00
 0.000000000000000000e+00
 </DataArray>
 <DataArray Name="k_t" type="Float32" NumberOfComponents="1" format="ascii">
 0.000000000000000000e+00
 0.000000000000000000e+00
 0.000000000000000000e+00
 0.000000000000000000e+00
 0.000000000000000000e+00
 0.000000000000000000e+00
 0.000000000000000000e+00
 0.000000000000000000e+00
 0.000000000000000000e+00
 0.000000000000000000e+00
 0.000000000000000000e+00
 0.000000000000000000e+00
 0.000000000000000000e+00
 0.000000000000000000e+00
 0.000000000000000000e+00
 0.000000000000000000e+00
 0.000000000000000000e+00
 0.000000000000000000e+00
 0.000000000000000000e+00
 0.000000000000000000e+00
 0.000000000000000000e+00
 0.000000000000000000e+00
 0.000000000000000000e+00
 0.000000000000000000e+00
 0.000000000000000000e+00
 0.000000000000000000e+00
 0.000000000000000000e+00
 0.000000000000000000e+00
 0.000000000000000000e+00
 </DataArray>
 <DataArray Name="S" type="Float32" NumberOfComponents="1" format="ascii">
 0.000000000000000000e+00
 0.000000000000000000e+00
 0.000000000000000000e+00
 0.000000000000000000e+00
 0.000000000000000000e+00
 0.000000000000000000e+00
 0.000000000000000000e+00
 0.000000000000000000e+00
 0.000000000000000000e+00
 0.000000000000000000e+00
 0.000000000000000000e+00
 0.000000000000000000e+00
 0.000000000000000000e+00
 0.000000000000000000e+00
 0.000000000000000000e+00
 0.000000000000000000e+00
 0.000000000000000000e+00
 0.000000000000000000e+00
 0.000000000000000000e+00
 0.000000000000000000e+00
 0.000000000000000000e+00
 0.000000000000000000e+00
 0.000000000000000000e+00
 0.000000000000000000e+00
 0.000000000000000000e+00
 0.000000000000000000e+00
 0.000000000000000000e+00
 0.000000000000000000e+00
 0.000000000000000000e+00
 </DataArray>
 <DataArray Name="massf[0]-Ar" type="Float32" NumberOfComponents="1" format="ascii">
 0.000000000000000000e+00
 0.000000000000000000e+00
 0.000000000000000000e+00
 0.000000000000000000e+00
 0.000000000000000000e+00
 0.000000000000000000e+00
 0.000000000000000000e+00
 0.000000000000000000e+00
 0.000000000000000000e+00
 0.000000000000000000e+00
 0.000000000000000000e+00
 0.000000000000000000e+00
 0.000000000000000000e+00
 0.000000000000000000e+00
 0.000000000000000000e+00
 0.000000000000000000e+00
 0.000000000000000000e+00
 0.000000000000000000e+00
 0.000000000000000000e+00
 0.000000000000000000e+00
 0.000000000000000000e+00
 0.000000000000000000e+00
 0.000000000000000000e+00
 0.000000000000000000e+00
 0.000000000000000000e+00
 0.000000000000000000e+00
 0.000000000000000000e+00
 0.000000000000000000e+00
 0.000000000000000000e+00
 </DataArray>
 <DataArray Name="massf[1]-He" type="Float32" NumberOfComponents="1" format="ascii">
 0.000000000000000000e+00
 0.000000000000000000e+00
 0.000000000000000000e+00
 0.000000000000000000e+00
 0.000000000000000000e+00
 0.000000000000000000e+00
 0.000000000000000000e+00
 0.000000000000000000e+00
 0.000000000000000000e+00
 0.000000000000000000e+00
 0.000000000000000000e+00
 0.000000000000000000e+00
 0.000000000000000000e+00
 0.000000000000000000e+00
 0.000000000000000000e+00
 0.000000000000000000e+00
 0.000000000000000000e+00
 0.000000000000000000e+00
 0.000000000000000000e+00
 0.000000000000000000e+00
 0.000000000000000000e+00
 0.000000000000000000e+00
 0.000000000000000000e+00
 0.000000000000000000e+00
 0.000000000000000000e+00
 0.000000000000000000e+00
 0.000000000000000000e+00
 0.000000000000000000e+00
 0.000000000000000000e+00
 </DataArray>
 <DataArray Name="massf[2]-N" type="Float32" NumberOfComponents="1" format="ascii">
 0.000000000000000000e+00
 0.000000000000000000e+00
 0.000000000000000000e+00
 0.000000000000000000e+00
 0.000000000000000000e+00
 0.000000000000000000e+00
 0.000000000000000000e+00
 0.000000000000000000e+00
 0.000000000000000000e+00
 0.000000000000000000e+00
 0.000000000000000000e+00
 0.000000000000000000e+00
 0.000000000000000000e+00
 0.000000000000000000e+00
 0.000000000000000000e+00
 0.000000000000000000e+00
 0.000000000000000000e+00
 0.000000000000000000e+00
 0.000000000000000000e+00
 0.000000000000000000e+00
 0.000000000000000000e+00
 0.000000000000000000e+00
 0.000000000000000000e+00
 0.000000000000000000e+00
 0.000000000000000000e+00
 0.000000000000000000e+00
 0.000000000000000000e+00
 0.000000000000000000e+00
 0.000000000000000000e+00
 </DataArray>
 <DataArray Name="massf[3]-N2" type="Float32" NumberOfComponents="1" format="ascii">
 7.563277885211407980e-01
 7.563277885211407980e-01
 7.563277885211407980e-01
 7.563277885211407980e-01
 7.563277885211407980e-01
 7.563277885211407980e-01
 7.563277885211407980e-01
 7.563277885211407980e-01
 7.563277885211407980e-01
 7.563277885211407980e-01
 7.563277885211407980e-01
 7.563277885211407980e-01
 7.563277885211407980e-01
 7.563277885211407980e-01
 7.563277885211407980e-01
 7.563277885211407980e-01
 7.563277885211407980e-01
 7.563277885211407980e-01
 7.563277885211407980e-01
 7.563277885211407980e-01
 7.563277885211407980e-01
 7.563277885211407980e-01
 7.563277885211407980e-01
 7.563277885211407980e-01
 7.563277885211407980e-01
 7.563277885211407980e-01
 7.563277885211407980e-01
 7.563277885211407980e-01
 7.563277885211407980e-01
 </DataArray>
 <DataArray Name="massf[4]-NO" type="Float32" NumberOfComponents="1" format="ascii">
 0.000000000000000000e+00
 0.000000000000000000e+00
 0.000000000000000000e+00
 0.000000000000000000e+00
 0.000000000000000000e+00
 0.000000000000000000e+00
 0.000000000000000000e+00
 0.000000000000000000e+00
 0.000000000000000000e+00
 0.000000000000000000e+00
 0.000000000000000000e+00
 0.000000000000000000e+00
 0.000000000000000000e+00
 0.000000000000000000e+00
 0.000000000000000000e+00
 0.000000000000000000e+00
 0.000000000000000000e+00
 0.000000000000000000e+00
 0.000000000000000000e+00
 0.000000000000000000e+00
 0.000000000000000000e+00
 0.000000000000000000e+00
 0.000000000000000000e+00
 0.000000000000000000e+00
 0.000000000000000000e+00
 0.000000000000000000e+00
 0.000000000000000000e+00
 0.000000000000000000e+00
 0.000000000000000000e+00
 </DataArray>
 <DataArray Name="massf[5]-O" type="Float32" NumberOfComponents="1" format="ascii">
 0.000000000000000000e+00
 0.000000000000000000e+00
 0.000000000000000000e+00
 0.000000000000000000e+00
 0.000000000000000000e+00
 0.000000000000000000e+00
 0.000000000000000000e+00
 0.000000000000000000e+00
 0.000000000000000000e+00
 0.000000000000000000e+00
 0.000000000000000000e+00
 0.000000000000000000e+00
 0.000000000000000000e+00
 0.000000000000000000e+00
 0.000000000000000000e+00
 0.000000000000000000e+00
 0.000000000000000000e+00
 0.000000000000000000e+00
 0.000000000000000000e+00
 0.000000000000000000e+00
 0.000000000000000000e+00
 0.000000000000000000e+00
 0.000000000000000000e+00
 0.000000000000000000e+00
 0.000000000000000000e+00
 0.000000000000000000e+00
 0.000000000000000000e+00
 0.000000000000000000e+00
 0.000000000000000000e+00
 </DataArray>
 <DataArray Name="massf[6]-O2" type="Float32" NumberOfComponents="1" format="ascii">
 2.436722114788592020e-01
 2.436722114788592020e-01
 2.436722114788592020e-01
 2.436722114788592020e-01
 2.436722114788592020e-01
 2.436722114788592020e-01
 2.436722114788592020e-01
 2.436722114788592020e-01
 2.436722114788592020e-01
 2.436722114788592020e-01
 2.436722114788592020e-01
 2.436722114788592020e-01
 2.436722114788592020e-01
 2.436722114788592020e-01
 2.436722114788592020e-01
 2.436722114788592020e-01
 2.436722114788592020e-01
 2.436722114788592020e-01
 2.436722114788592020e-01
 2.436722114788592020e-01
 2.436722114788592020e-01
 2.436722114788592020e-01
 2.436722114788592020e-01
 2.436722114788592020e-01
 2.436722114788592020e-01
 2.436722114788592020e-01
 2.436722114788592020e-01
 2.436722114788592020e-01
 2.436722114788592020e-01
 </DataArray>
 <DataArray Name="dt_chem" type="Float32" NumberOfComponents="1" format="ascii">
 -1.000000000000000000e+00
 -1.000000000000000000e+00
 -1.000000000000000000e+00
 -1.000000000000000000e+00
 -1.000000000000000000e+00
 -1.000000000000000000e+00
 -1.000000000000000000e+00
 -1.000000000000000000e+00
 -1.000000000000000000e+00
 -1.000000000000000000e+00
 -1.000000000000000000e+00
 -1.000000000000000000e+00
 -1.000000000000000000e+00
 -1.000000000000000000e+00
 -1.000000000000000000e+00
 -1.000000000000000000e+00
 -1.000000000000000000e+00
 -1.000000000000000000e+00
 -1.000000000000000000e+00
 -1.000000000000000000e+00
 -1.000000000000000000e+00
 -1.000000000000000000e+00
 -1.000000000000000000e+00
 -1.000000000000000000e+00
 -1.000000000000000000e+00
 -1.000000000000000000e+00
 -1.000000000000000000e+00
 -1.000000000000000000e+00
 -1.000000000000000000e+00
 </DataArray>
 <DataArray Name="u" type="Float32" NumberOfComponents="1" format="ascii">
 -8.447044764501467580e+04
 -8.447044764501467580e+04
 -8.447044764501467580e+04
 -8.447044764501467580e+04
 -8.447044764501467580e+04
 -8.447044764501467580e+04
 -8.447044764501467580e+04
 -8.447044764501467580e+04
 -8.447044764501467580e+04
 -8.447044764501467580e+04
 -8.447044764501467580e+04
 -8.447044764501467580e+04
 -8.447044764501467580e+04
 -8.447044764501467580e+04
 -8.447044764501467580e+04
 -8.447044764501467580e+04
 -8.447044764501467580e+04
 -8.447044764501467580e+04
 -8.447044764501467580e+04
 -8.447044764501467580e+04
 -8.447044764501467580e+04
 -8.447044764501467580e+04
 -8.447044764501467580e+04
 -8.447044764501467580e+04
 -8.447044764501467580e+04
 -8.447044764501467580e+04
 -8.447044764501467580e+04
 -8.447044764501467580e+04
 -8.447044764501467580e+04
 </DataArray>
 <DataArray Name="T" type="Float32" NumberOfComponents="1" format="ascii">
 3.000000000000000000e+02
 3.000000000000000000e+02
 3.000000000000000000e+02
 3.000000000000000000e+02
 3.000000000000000000e+02
 3.000000000000000000e+02
 3.000000000000000000e+02
 3.000000000000000000e+02
 3.000000000000000000e+02
 3.000000000000000000e+02
 3.000000000000000000e+02
 3.000000000000000000e+02
 3.000000000000000000e+02
 3.000000000000000000e+02
 3.000000000000000000e+02
 3.000000000000000000e+02
 3.000000000000000000e+02
 3.000000000000000000e+02
 3.000000000000000000e+02
 3.000000000000000000e+02
 3.000000000000000000e+02
 3.000000000000000000e+02
 3.000000000000000000e+02
 3.000000000000000000e+02
 3.000000000000000000e+02
 3.000000000000000000e+02
 3.000000000000000000e+02
 3.000000000000000000e+02
 3.000000000000000000e+02
 </DataArray>
 <DataArray Name="vel.vector" type="Float32" NumberOfComponents="3" format="ascii">
 3.852970595569563117e-14 -1.625836271168523695e-11 0.000000000000000000e+00
 3.873451174607814296e-14 7.163820751887595151e-12 0.000000000000000000e+00
 3.791208680000747455e-14 -2.191936215867329452e-11 0.000000000000000000e+00
 1.627988108904299125e-13 2.556004539966405531e-11 0.000000000000000000e+00
 1.352815971224219371e-13 -3.693304776591910255e-12 0.000000000000000000e+00
 1.931578269727396435e-13 1.012267786953957582e-11 0.000000000000000000e+00
 1.930601674620530117e-13 -4.431339843680159873e-12 0.000000000000000000e+00
 1.925810178644501991e-13 9.667943529079181531e-12 0.000000000000000000e+00
 1.931129816603802118e-13 2.854237159122252621e-11 0.000000000000000000e+00
 3.847079650827998909e-14 -3.947070101317784463e-11 0.000000000000000000e+00
 1.233406822856442098e-13 2.294503476107934148e-11 0.000000000000000000e+00
 1.968676347700697160e-14 -2.012510297300096340e-11 0.000000000000000000e+00
 1.876874069844328835e-14 -7.390344412827598575e-12 0.000000000000000000e+00
 1.942052746915778894e-14 6.042887717994105401e-11 0.000000000000000000e+00
 -1.352139835644403099e-13 -3.172518150962311267e-11 0.000000000000000000e+00
 -1.155103031454107754e-13 -1.262294956061449369e-11 0.000000000000000000e+00
 -1.951904756531883112e-14 -3.729438632915638152e-11 0.000000000000000000e+00
 3.890547687615195094e-14 2.432625108295116689e-11 0.000000000000000000e+00
 1.052085664681595700e-13 2.515855232476660319e-11 0.000000000000000000e+00
 1.917141677343619371e-14 -2.389415054704357999e-11 0.000000000000000000e+00
 1.159725933992314384e-13 -5.114755407403803744e-12 0.000000000000000000e+00
 1.934798350179678383e-13 1.330646617198061321e-11 0.000000000000000000e+00
 1.924039540971561602e-13 -1.067889440070635132e-11 0.000000000000000000e+00
 2.709085939519434438e-13 3.277170548821040086e-11 0.000000000000000000e+00
 2.229908423710680321e-13 1.026816327277801921e-12 0.000000000000000000e+00
 1.961230114942702496e-13 2.163670501445502659e-12 0.000000000000000000e+00
 2.118761573523600394e-13 3.300762007468760473e-12 0.000000000000000000e+00
 1.931740629002726140e-13 -3.294357408395454101e-12 0.000000000000000000e+00
 1.923657630756303583e-13 1.489834297596637214e-11 0.000000000000000000e+00
 </DataArray>
</CellData>
</Piece>
</UnstructuredGrid>
</VTKFile>
