<VTKFile type="UnstructuredGrid" byte_order="BigEndian">
<UnstructuredGrid><Piece NumberOfPoints="46" NumberOfCells="22">
<Points>
 <DataArray type="Float32" NumberOfComponents="3" format="ascii">
 9.822690010070800781e+00 0.000000000000000000e+00 0.000000000000000000e+00
 9.829310417175292969e+00 0.000000000000000000e+00 0.000000000000000000e+00
 9.835929870605468750e+00 0.000000000000000000e+00 0.000000000000000000e+00
 9.842550277709960938e+00 0.000000000000000000e+00 0.000000000000000000e+00
 9.849170684814453125e+00 0.000000000000000000e+00 0.000000000000000000e+00
 9.855791091918945312e+00 0.000000000000000000e+00 0.000000000000000000e+00
 9.862410545349121094e+00 0.000000000000000000e+00 0.000000000000000000e+00
 9.869030952453613281e+00 0.000000000000000000e+00 0.000000000000000000e+00
 9.875651359558105469e+00 0.000000000000000000e+00 0.000000000000000000e+00
 9.882271766662597656e+00 0.000000000000000000e+00 0.000000000000000000e+00
 9.888891220092773438e+00 0.000000000000000000e+00 0.000000000000000000e+00
 9.895511627197265625e+00 0.000000000000000000e+00 0.000000000000000000e+00
 9.902132034301757812e+00 0.000000000000000000e+00 0.000000000000000000e+00
 9.908752441406250000e+00 0.000000000000000000e+00 0.000000000000000000e+00
 9.915371894836425781e+00 0.000000000000000000e+00 0.000000000000000000e+00
 9.921992301940917969e+00 0.000000000000000000e+00 0.000000000000000000e+00
 9.928612709045410156e+00 0.000000000000000000e+00 0.000000000000000000e+00
 9.935232162475585938e+00 0.000000000000000000e+00 0.000000000000000000e+00
 9.941852569580078125e+00 0.000000000000000000e+00 0.000000000000000000e+00
 9.948472976684570312e+00 0.000000000000000000e+00 0.000000000000000000e+00
 9.955093383789062500e+00 0.000000000000000000e+00 0.000000000000000000e+00
 9.961712837219238281e+00 0.000000000000000000e+00 0.000000000000000000e+00
 9.968333244323730469e+00 0.000000000000000000e+00 0.000000000000000000e+00
 9.822690010070800781e+00 9.982699900865554810e-02 0.000000000000000000e+00
 9.829310417175292969e+00 9.987304359674453735e-02 0.000000000000000000e+00
 9.835929870605468750e+00 9.991908818483352661e-02 0.000000000000000000e+00
 9.842550277709960938e+00 9.996513277292251587e-02 0.000000000000000000e+00
 9.849170684814453125e+00 1.000111848115921021e-01 0.000000000000000000e+00
 9.855791091918945312e+00 1.000572293996810913e-01 0.000000000000000000e+00
 9.862410545349121094e+00 1.001032739877700806e-01 0.000000000000000000e+00
 9.869030952453613281e+00 1.001493185758590698e-01 0.000000000000000000e+00
 9.875651359558105469e+00 1.001953631639480591e-01 0.000000000000000000e+00
 9.882271766662597656e+00 1.002414077520370483e-01 0.000000000000000000e+00
 9.888891220092773438e+00 1.002874523401260376e-01 0.000000000000000000e+00
 9.895511627197265625e+00 1.003334969282150269e-01 0.000000000000000000e+00
 9.902132034301757812e+00 1.003795489668846130e-01 0.000000000000000000e+00
 9.908752441406250000e+00 1.004255935549736023e-01 0.000000000000000000e+00
 9.915371894836425781e+00 1.004716381430625916e-01 0.000000000000000000e+00
 9.921992301940917969e+00 1.005176827311515808e-01 0.000000000000000000e+00
 9.928612709045410156e+00 1.005637273192405701e-01 0.000000000000000000e+00
 9.935232162475585938e+00 1.006097719073295593e-01 0.000000000000000000e+00
 9.941852569580078125e+00 1.006558164954185486e-01 0.000000000000000000e+00
 9.948472976684570312e+00 1.007018610835075378e-01 0.000000000000000000e+00
 9.955093383789062500e+00 1.007479056715965271e-01 0.000000000000000000e+00
 9.961712837219238281e+00 1.007939577102661133e-01 0.000000000000000000e+00
 9.968333244323730469e+00 1.008400022983551025e-01 0.000000000000000000e+00
 </DataArray>
</Points>
<Cells>
 <DataArray type="Int32" Name="connectivity" format="ascii">
 0 1 24 23
 1 2 25 24
 2 3 26 25
 3 4 27 26
 4 5 28 27
 5 6 29 28
 6 7 30 29
 7 8 31 30
 8 9 32 31
 9 10 33 32
 10 11 34 33
 11 12 35 34
 12 13 36 35
 13 14 37 36
 14 15 38 37
 15 16 39 38
 16 17 40 39
 17 18 41 40
 18 19 42 41
 19 20 43 42
 20 21 44 43
 21 22 45 44
 </DataArray>
 <DataArray type="Int32" Name="offsets" format="ascii">
 4
 8
 12
 16
 20
 24
 28
 32
 36
 40
 44
 48
 52
 56
 60
 64
 68
 72
 76
 80
 84
 88
 </DataArray>
 <DataArray type="UInt8" Name="types" format="ascii">
 9
 9
 9
 9
 9
 9
 9
 9
 9
 9
 9
 9
 9
 9
 9
 9
 9
 9
 9
 9
 9
 9
 </DataArray>
</Cells>
<CellData>
 <DataArray Name="pos.x" type="Float32" NumberOfComponents="1" format="ascii">
 9.826000330163308760e+00
 9.832620481561068715e+00
 9.839240632957592325e+00
 9.845860784356382567e+00
 9.852480935754826419e+00
 9.859101087154652276e+00
 9.865721238550195338e+00
 9.872341389948509516e+00
 9.878961541349013942e+00
 9.885581692746976401e+00
 9.892201844147507472e+00
 9.898821995542810726e+00
 9.905442146944745119e+00
 9.912062298344396893e+00
 9.918682449742149743e+00
 9.925302601140929326e+00
 9.931922752541868959e+00
 9.938542903938373030e+00
 9.945163055342769454e+00
 9.951783206741200871e+00
 9.958403358141779904e+00
 9.965023509538943003e+00
 </DataArray>
 <DataArray Name="pos.y" type="Float32" NumberOfComponents="1" format="ascii">
 4.992501224838374885e-02
 4.994803497524093888e-02
 4.997105770210014120e-02
 4.999408042896644200e-02
 5.001710315583480365e-02
 5.004012588271024298e-02
 5.006314860956764118e-02
 5.008617133643035457e-02
 5.010919406330355264e-02
 5.013221679017714622e-02
 5.015523951703607791e-02
 5.017826224390024847e-02
 5.020128497077493146e-02
 5.022430769764670011e-02
 5.024733042452211862e-02
 5.027035315138445037e-02
 5.029337587825734313e-02
 5.031639860511199352e-02
 5.033942133201078223e-02
 5.036244405887455033e-02
 5.038546678574893495e-02
 5.040848951261017730e-02
 </DataArray>
 <DataArray Name="pos.z" type="Float32" NumberOfComponents="1" format="ascii">
 0.000000000000000000e+00
 0.000000000000000000e+00
 0.000000000000000000e+00
 0.000000000000000000e+00
 0.000000000000000000e+00
 0.000000000000000000e+00
 0.000000000000000000e+00
 0.000000000000000000e+00
 0.000000000000000000e+00
 0.000000000000000000e+00
 0.000000000000000000e+00
 0.000000000000000000e+00
 0.000000000000000000e+00
 0.000000000000000000e+00
 0.000000000000000000e+00
 0.000000000000000000e+00
 0.000000000000000000e+00
 0.000000000000000000e+00
 0.000000000000000000e+00
 0.000000000000000000e+00
 0.000000000000000000e+00
 0.000000000000000000e+00
 </DataArray>
 <DataArray Name="volume" type="Float32" NumberOfComponents="1" format="ascii">
 3.300154538780131804e-05
 3.303198947707428702e-05
 3.306244760230352505e-05
 3.309291976345357872e-05
 3.312340596055994888e-05
 3.315390619358710080e-05
 3.318442046257950710e-05
 3.321494876747482615e-05
 3.324549110832652267e-05
 3.327604748511678865e-05
 3.330661789786346598e-05
 3.333720234651295442e-05
 3.336780083111886099e-05
 3.339841335167229524e-05
 3.342903990815532039e-05
 3.345968050056793644e-05
 3.349033512893705871e-05
 3.352100379322675268e-05
 3.355168649347299353e-05
 3.358238322963978575e-05
 3.361309400176315195e-05
 3.364381880981606840e-05
 </DataArray>
 <DataArray Name="rho" type="Float32" NumberOfComponents="1" format="ascii">
 1.528855304762397147e-04
 1.528855304762397147e-04
 1.528855304762397147e-04
 1.528855304762397147e-04
 1.528855304762397147e-04
 1.528855304762397147e-04
 1.528855304762397147e-04
 1.528855304762397147e-04
 1.528855304762397147e-04
 1.528855304762397147e-04
 1.528855304762397147e-04
 1.528855304762397147e-04
 1.528855304762397147e-04
 1.528855304762397147e-04
 1.528855304762397147e-04
 1.528855304762397147e-04
 1.528855304762397147e-04
 1.528855304762397147e-04
 1.528855304762397147e-04
 1.528855304762397147e-04
 1.528855304762397147e-04
 1.528855304762397147e-04
 </DataArray>
 <DataArray Name="vel.x" type="Float32" NumberOfComponents="1" format="ascii">
 -5.036299532993805526e-15
 1.976644890779130400e-14
 5.757029457428074118e-14
 3.830459107295463758e-14
 -3.793286259254261030e-15
 -1.932650856937485338e-14
 3.830277524835105551e-14
 4.213321948238036612e-14
 1.154812809055528206e-13
 3.747744822108047156e-14
 1.896806101751990555e-14
 1.157246323444697178e-13
 1.159040173428170818e-13
 3.864454937739755862e-14
 -1.875150100892666177e-14
 4.914029650130240899e-14
 3.809087138369757662e-14
 1.946953136227511627e-14
 -3.879570080018817837e-14
 -1.156559419158343171e-13
 -1.958868861968115293e-14
 -1.836032099778855067e-14
 </DataArray>
 <DataArray Name="vel.y" type="Float32" NumberOfComponents="1" format="ascii">
 -5.190342167336100780e-11
 -1.375659480681363857e-11
 1.625805989372425686e-11
 1.317340963415592436e-11
 1.705368279548074728e-12
 -4.269419091399401782e-11
 3.454365101713465007e-12
 2.540173902196489885e-11
 -2.386826552958652452e-12
 -3.010584244952633801e-11
 1.576072112322608953e-11
 3.790843837888848139e-11
 9.892219050099233286e-12
 -1.477772934282134689e-12
 -2.925295112902239748e-11
 8.754668762039982958e-12
 -2.614823589072417849e-12
 7.688243448150604143e-11
 -5.815312259353069191e-11
 -1.966935706904804092e-11
 -3.168776425773482000e-11
 2.289299486185500042e-11
 </DataArray>
 <DataArray Name="vel.z" type="Float32" NumberOfComponents="1" format="ascii">
 0.000000000000000000e+00
 0.000000000000000000e+00
 0.000000000000000000e+00
 0.000000000000000000e+00
 0.000000000000000000e+00
 0.000000000000000000e+00
 0.000000000000000000e+00
 0.000000000000000000e+00
 0.000000000000000000e+00
 0.000000000000000000e+00
 0.000000000000000000e+00
 0.000000000000000000e+00
 0.000000000000000000e+00
 0.000000000000000000e+00
 0.000000000000000000e+00
 0.000000000000000000e+00
 0.000000000000000000e+00
 0.000000000000000000e+00
 0.000000000000000000e+00
 0.000000000000000000e+00
 0.000000000000000000e+00
 0.000000000000000000e+00
 </DataArray>
 <DataArray Name="p" type="Float32" NumberOfComponents="1" format="ascii">
 1.319999999999999929e+01
 1.319999999999999929e+01
 1.319999999999999929e+01
 1.319999999999999929e+01
 1.319999999999999929e+01
 1.319999999999999929e+01
 1.319999999999999929e+01
 1.319999999999999929e+01
 1.319999999999999929e+01
 1.319999999999999929e+01
 1.319999999999999929e+01
 1.319999999999999929e+01
 1.319999999999999929e+01
 1.319999999999999929e+01
 1.319999999999999929e+01
 1.319999999999999929e+01
 1.319999999999999929e+01
 1.319999999999999929e+01
 1.319999999999999929e+01
 1.319999999999999929e+01
 1.319999999999999929e+01
 1.319999999999999929e+01
 </DataArray>
 <DataArray Name="a" type="Float32" NumberOfComponents="1" format="ascii">
 3.474749704973453390e+02
 3.474749704973453390e+02
 3.474749704973453390e+02
 3.474749704973453390e+02
 3.474749704973453390e+02
 3.474749704973453390e+02
 3.474749704973453390e+02
 3.474749704973453390e+02
 3.474749704973453390e+02
 3.474749704973453390e+02
 3.474749704973453390e+02
 3.474749704973453390e+02
 3.474749704973453390e+02
 3.474749704973453390e+02
 3.474749704973453390e+02
 3.474749704973453390e+02
 3.474749704973453390e+02
 3.474749704973453390e+02
 3.474749704973453390e+02
 3.474749704973453390e+02
 3.474749704973453390e+02
 3.474749704973453390e+02
 </DataArray>
 <DataArray Name="mu" type="Float32" NumberOfComponents="1" format="ascii">
 1.853126952258717352e-05
 1.853126952258717352e-05
 1.853126952258717352e-05
 1.853126952258717352e-05
 1.853126952258717352e-05
 1.853126952258717352e-05
 1.853126952258717352e-05
 1.853126952258717352e-05
 1.853126952258717352e-05
 1.853126952258717352e-05
 1.853126952258717352e-05
 1.853126952258717352e-05
 1.853126952258717352e-05
 1.853126952258717352e-05
 1.853126952258717352e-05
 1.853126952258717352e-05
 1.853126952258717352e-05
 1.853126952258717352e-05
 1.853126952258717352e-05
 1.853126952258717352e-05
 1.853126952258717352e-05
 1.853126952258717352e-05
 </DataArray>
 <DataArray Name="k" type="Float32" NumberOfComponents="1" format="ascii">
 2.626199291280435430e-02
 2.626199291280435430e-02
 2.626199291280435430e-02
 2.626199291280435430e-02
 2.626199291280435430e-02
 2.626199291280435430e-02
 2.626199291280435430e-02
 2.626199291280435430e-02
 2.626199291280435430e-02
 2.626199291280435430e-02
 2.626199291280435430e-02
 2.626199291280435430e-02
 2.626199291280435430e-02
 2.626199291280435430e-02
 2.626199291280435430e-02
 2.626199291280435430e-02
 2.626199291280435430e-02
 2.626199291280435430e-02
 2.626199291280435430e-02
 2.626199291280435430e-02
 2.626199291280435430e-02
 2.626199291280435430e-02
 </DataArray>
 <DataArray Name="mu_t" type="Float32" NumberOfComponents="1" format="ascii">
 0.000000000000000000e+00
 0.000000000000000000e+00
 0.000000000000000000e+00
 0.000000000000000000e+00
 0.000000000000000000e+00
 0.000000000000000000e+00
 0.000000000000000000e+00
 0.000000000000000000e+00
 0.000000000000000000e+00
 0.000000000000000000e+00
 0.000000000000000000e+00
 0.000000000000000000e+00
 0.000000000000000000e+00
 0.000000000000000000e+00
 0.000000000000000000e+00
 0.000000000000000000e+00
 0.000000000000000000e+00
 0.000000000000000000e+00
 0.000000000000000000e+00
 0.000000000000000000e+00
 0.000000000000000000e+00
 0.000000000000000000e+00
 </DataArray>
 <DataArray Name="k_t" type="Float32" NumberOfComponents="1" format="ascii">
 0.000000000000000000e+00
 0.000000000000000000e+00
 0.000000000000000000e+00
 0.000000000000000000e+00
 0.000000000000000000e+00
 0.000000000000000000e+00
 0.000000000000000000e+00
 0.000000000000000000e+00
 0.000000000000000000e+00
 0.000000000000000000e+00
 0.000000000000000000e+00
 0.000000000000000000e+00
 0.000000000000000000e+00
 0.000000000000000000e+00
 0.000000000000000000e+00
 0.000000000000000000e+00
 0.000000000000000000e+00
 0.000000000000000000e+00
 0.000000000000000000e+00
 0.000000000000000000e+00
 0.000000000000000000e+00
 0.000000000000000000e+00
 </DataArray>
 <DataArray Name="S" type="Float32" NumberOfComponents="1" format="ascii">
 0.000000000000000000e+00
 0.000000000000000000e+00
 0.000000000000000000e+00
 0.000000000000000000e+00
 0.000000000000000000e+00
 0.000000000000000000e+00
 0.000000000000000000e+00
 0.000000000000000000e+00
 0.000000000000000000e+00
 0.000000000000000000e+00
 0.000000000000000000e+00
 0.000000000000000000e+00
 0.000000000000000000e+00
 0.000000000000000000e+00
 0.000000000000000000e+00
 0.000000000000000000e+00
 0.000000000000000000e+00
 0.000000000000000000e+00
 0.000000000000000000e+00
 0.000000000000000000e+00
 0.000000000000000000e+00
 0.000000000000000000e+00
 </DataArray>
 <DataArray Name="massf[0]-Ar" type="Float32" NumberOfComponents="1" format="ascii">
 0.000000000000000000e+00
 0.000000000000000000e+00
 0.000000000000000000e+00
 0.000000000000000000e+00
 0.000000000000000000e+00
 0.000000000000000000e+00
 0.000000000000000000e+00
 0.000000000000000000e+00
 0.000000000000000000e+00
 0.000000000000000000e+00
 0.000000000000000000e+00
 0.000000000000000000e+00
 0.000000000000000000e+00
 0.000000000000000000e+00
 0.000000000000000000e+00
 0.000000000000000000e+00
 0.000000000000000000e+00
 0.000000000000000000e+00
 0.000000000000000000e+00
 0.000000000000000000e+00
 0.000000000000000000e+00
 0.000000000000000000e+00
 </DataArray>
 <DataArray Name="massf[1]-He" type="Float32" NumberOfComponents="1" format="ascii">
 0.000000000000000000e+00
 0.000000000000000000e+00
 0.000000000000000000e+00
 0.000000000000000000e+00
 0.000000000000000000e+00
 0.000000000000000000e+00
 0.000000000000000000e+00
 0.000000000000000000e+00
 0.000000000000000000e+00
 0.000000000000000000e+00
 0.000000000000000000e+00
 0.000000000000000000e+00
 0.000000000000000000e+00
 0.000000000000000000e+00
 0.000000000000000000e+00
 0.000000000000000000e+00
 0.000000000000000000e+00
 0.000000000000000000e+00
 0.000000000000000000e+00
 0.000000000000000000e+00
 0.000000000000000000e+00
 0.000000000000000000e+00
 </DataArray>
 <DataArray Name="massf[2]-N" type="Float32" NumberOfComponents="1" format="ascii">
 0.000000000000000000e+00
 0.000000000000000000e+00
 0.000000000000000000e+00
 0.000000000000000000e+00
 0.000000000000000000e+00
 0.000000000000000000e+00
 0.000000000000000000e+00
 0.000000000000000000e+00
 0.000000000000000000e+00
 0.000000000000000000e+00
 0.000000000000000000e+00
 0.000000000000000000e+00
 0.000000000000000000e+00
 0.000000000000000000e+00
 0.000000000000000000e+00
 0.000000000000000000e+00
 0.000000000000000000e+00
 0.000000000000000000e+00
 0.000000000000000000e+00
 0.000000000000000000e+00
 0.000000000000000000e+00
 0.000000000000000000e+00
 </DataArray>
 <DataArray Name="massf[3]-N2" type="Float32" NumberOfComponents="1" format="ascii">
 7.563277885211407980e-01
 7.563277885211407980e-01
 7.563277885211407980e-01
 7.563277885211407980e-01
 7.563277885211407980e-01
 7.563277885211407980e-01
 7.563277885211407980e-01
 7.563277885211407980e-01
 7.563277885211407980e-01
 7.563277885211407980e-01
 7.563277885211407980e-01
 7.563277885211407980e-01
 7.563277885211407980e-01
 7.563277885211407980e-01
 7.563277885211407980e-01
 7.563277885211407980e-01
 7.563277885211407980e-01
 7.563277885211407980e-01
 7.563277885211407980e-01
 7.563277885211407980e-01
 7.563277885211407980e-01
 7.563277885211407980e-01
 </DataArray>
 <DataArray Name="massf[4]-NO" type="Float32" NumberOfComponents="1" format="ascii">
 0.000000000000000000e+00
 0.000000000000000000e+00
 0.000000000000000000e+00
 0.000000000000000000e+00
 0.000000000000000000e+00
 0.000000000000000000e+00
 0.000000000000000000e+00
 0.000000000000000000e+00
 0.000000000000000000e+00
 0.000000000000000000e+00
 0.000000000000000000e+00
 0.000000000000000000e+00
 0.000000000000000000e+00
 0.000000000000000000e+00
 0.000000000000000000e+00
 0.000000000000000000e+00
 0.000000000000000000e+00
 0.000000000000000000e+00
 0.000000000000000000e+00
 0.000000000000000000e+00
 0.000000000000000000e+00
 0.000000000000000000e+00
 </DataArray>
 <DataArray Name="massf[5]-O" type="Float32" NumberOfComponents="1" format="ascii">
 0.000000000000000000e+00
 0.000000000000000000e+00
 0.000000000000000000e+00
 0.000000000000000000e+00
 0.000000000000000000e+00
 0.000000000000000000e+00
 0.000000000000000000e+00
 0.000000000000000000e+00
 0.000000000000000000e+00
 0.000000000000000000e+00
 0.000000000000000000e+00
 0.000000000000000000e+00
 0.000000000000000000e+00
 0.000000000000000000e+00
 0.000000000000000000e+00
 0.000000000000000000e+00
 0.000000000000000000e+00
 0.000000000000000000e+00
 0.000000000000000000e+00
 0.000000000000000000e+00
 0.000000000000000000e+00
 0.000000000000000000e+00
 </DataArray>
 <DataArray Name="massf[6]-O2" type="Float32" NumberOfComponents="1" format="ascii">
 2.436722114788592020e-01
 2.436722114788592020e-01
 2.436722114788592020e-01
 2.436722114788592020e-01
 2.436722114788592020e-01
 2.436722114788592020e-01
 2.436722114788592020e-01
 2.436722114788592020e-01
 2.436722114788592020e-01
 2.436722114788592020e-01
 2.436722114788592020e-01
 2.436722114788592020e-01
 2.436722114788592020e-01
 2.436722114788592020e-01
 2.436722114788592020e-01
 2.436722114788592020e-01
 2.436722114788592020e-01
 2.436722114788592020e-01
 2.436722114788592020e-01
 2.436722114788592020e-01
 2.436722114788592020e-01
 2.436722114788592020e-01
 </DataArray>
 <DataArray Name="dt_chem" type="Float32" NumberOfComponents="1" format="ascii">
 -1.000000000000000000e+00
 -1.000000000000000000e+00
 -1.000000000000000000e+00
 -1.000000000000000000e+00
 -1.000000000000000000e+00
 -1.000000000000000000e+00
 -1.000000000000000000e+00
 -1.000000000000000000e+00
 -1.000000000000000000e+00
 -1.000000000000000000e+00
 -1.000000000000000000e+00
 -1.000000000000000000e+00
 -1.000000000000000000e+00
 -1.000000000000000000e+00
 -1.000000000000000000e+00
 -1.000000000000000000e+00
 -1.000000000000000000e+00
 -1.000000000000000000e+00
 -1.000000000000000000e+00
 -1.000000000000000000e+00
 -1.000000000000000000e+00
 -1.000000000000000000e+00
 </DataArray>
 <DataArray Name="u" type="Float32" NumberOfComponents="1" format="ascii">
 -8.447044764501467580e+04
 -8.447044764501467580e+04
 -8.447044764501467580e+04
 -8.447044764501467580e+04
 -8.447044764501467580e+04
 -8.447044764501467580e+04
 -8.447044764501467580e+04
 -8.447044764501467580e+04
 -8.447044764501467580e+04
 -8.447044764501467580e+04
 -8.447044764501467580e+04
 -8.447044764501467580e+04
 -8.447044764501467580e+04
 -8.447044764501467580e+04
 -8.447044764501467580e+04
 -8.447044764501467580e+04
 -8.447044764501467580e+04
 -8.447044764501467580e+04
 -8.447044764501467580e+04
 -8.447044764501467580e+04
 -8.447044764501467580e+04
 -8.447044764501467580e+04
 </DataArray>
 <DataArray Name="T" type="Float32" NumberOfComponents="1" format="ascii">
 3.000000000000000000e+02
 3.000000000000000000e+02
 3.000000000000000000e+02
 3.000000000000000000e+02
 3.000000000000000000e+02
 3.000000000000000000e+02
 3.000000000000000000e+02
 3.000000000000000000e+02
 3.000000000000000000e+02
 3.000000000000000000e+02
 3.000000000000000000e+02
 3.000000000000000000e+02
 3.000000000000000000e+02
 3.000000000000000000e+02
 3.000000000000000000e+02
 3.000000000000000000e+02
 3.000000000000000000e+02
 3.000000000000000000e+02
 3.000000000000000000e+02
 3.000000000000000000e+02
 3.000000000000000000e+02
 3.000000000000000000e+02
 </DataArray>
 <DataArray Name="vel.vector" type="Float32" NumberOfComponents="3" format="ascii">
 -5.036299509212933262e-15 -5.190342253214019763e-11 0.000000000000000000e+00
 1.976644894855286716e-14 -1.375659482161228908e-11 0.000000000000000000e+00
 5.757029510229660918e-14 1.625805913507694100e-11 0.000000000000000000e+00
 3.830459170336975028e-14 1.317340941192624015e-11 0.000000000000000000e+00
 -3.793286282413772803e-15 1.705368268475893068e-12 0.000000000000000000e+00
 -1.932650850607845611e-14 -4.269419193181356320e-11 0.000000000000000000e+00
 3.830277566473083706e-14 3.454365049213037331e-12 0.000000000000000000e+00
 4.213321789440886700e-14 2.540173973941683983e-11 0.000000000000000000e+00
 1.154812871847696321e-13 -2.386826630437766106e-12 0.000000000000000000e+00
 3.747744708971698091e-14 -3.010584143092742693e-11 0.000000000000000000e+00
 1.896806110345938129e-14 1.576072085340829432e-11 0.000000000000000000e+00
 1.157246363623840035e-13 3.790843680628874779e-11 0.000000000000000000e+00
 1.159040176118217302e-13 9.892218988394319013e-12 0.000000000000000000e+00
 3.864455007081615823e-14 -1.477772982108604971e-12 0.000000000000000000e+00
 -1.875150018983487432e-14 -2.925295075617562190e-11 0.000000000000000000e+00
 4.914029795057006655e-14 8.754668864852099830e-12 0.000000000000000000e+00
 3.809087173825033423e-14 -2.614823505289742833e-12 0.000000000000000000e+00
 1.946953171328823923e-14 7.688243791603710520e-11 0.000000000000000000e+00
 -3.879570140618779361e-14 -5.815312120738269641e-11 0.000000000000000000e+00
 -1.156559386022298908e-13 -1.966935642139233664e-11 0.000000000000000000e+00
 -1.958868892017618518e-14 -3.168776352424629295e-11 0.000000000000000000e+00
 -1.836032174006799883e-14 2.289299479152351324e-11 0.000000000000000000e+00
 </DataArray>
</CellData>
</Piece>
</UnstructuredGrid>
</VTKFile>
