<VTKFile type="UnstructuredGrid" byte_order="BigEndian">
<UnstructuredGrid><Piece NumberOfPoints="22" NumberOfCells="10">
<Points>
 <DataArray type="Float32" NumberOfComponents="3" format="ascii">
 8.764294624328613281e+00 0.000000000000000000e+00 0.000000000000000000e+00
 8.770785331726074219e+00 0.000000000000000000e+00 0.000000000000000000e+00
 8.777276039123535156e+00 0.000000000000000000e+00 0.000000000000000000e+00
 8.783766746520996094e+00 0.000000000000000000e+00 0.000000000000000000e+00
 8.790257453918457031e+00 0.000000000000000000e+00 0.000000000000000000e+00
 8.796748161315917969e+00 0.000000000000000000e+00 0.000000000000000000e+00
 8.803238868713378906e+00 0.000000000000000000e+00 0.000000000000000000e+00
 8.809729576110839844e+00 0.000000000000000000e+00 0.000000000000000000e+00
 8.816220283508300781e+00 0.000000000000000000e+00 0.000000000000000000e+00
 8.822710990905761719e+00 0.000000000000000000e+00 0.000000000000000000e+00
 8.829201698303222656e+00 0.000000000000000000e+00 0.000000000000000000e+00
 8.764294624328613281e+00 5.193899944424629211e-02 0.000000000000000000e+00
 8.770785331726074219e+00 5.232730135321617126e-02 0.000000000000000000e+00
 8.777276039123535156e+00 5.271559953689575195e-02 0.000000000000000000e+00
 8.783766746520996094e+00 5.310390144586563110e-02 0.000000000000000000e+00
 8.790257453918457031e+00 5.349219962954521179e-02 0.000000000000000000e+00
 8.796748161315917969e+00 5.388050153851509094e-02 0.000000000000000000e+00
 8.803238868713378906e+00 5.426879972219467163e-02 0.000000000000000000e+00
 8.809729576110839844e+00 5.465710163116455078e-02 0.000000000000000000e+00
 8.816220283508300781e+00 5.504539981484413147e-02 0.000000000000000000e+00
 8.822710990905761719e+00 5.543370172381401062e-02 0.000000000000000000e+00
 8.829201698303222656e+00 5.582199990749359131e-02 0.000000000000000000e+00
 </DataArray>
</Points>
<Cells>
 <DataArray type="Int32" Name="connectivity" format="ascii">
 0 1 12 11
 1 2 13 12
 2 3 14 13
 3 4 15 14
 4 5 16 15
 5 6 17 16
 6 7 18 17
 7 8 19 18
 8 9 20 19
 9 10 21 20
 </DataArray>
 <DataArray type="Int32" Name="offsets" format="ascii">
 4
 8
 12
 16
 20
 24
 28
 32
 36
 40
 </DataArray>
 <DataArray type="UInt8" Name="types" format="ascii">
 9
 9
 9
 9
 9
 9
 9
 9
 9
 9
 </DataArray>
</Cells>
<CellData>
 <DataArray Name="pos.x" type="Float32" NumberOfComponents="1" format="ascii">
 8.767544378689592577e+00
 8.774035048903913392e+00
 8.780525719555502207e+00
 8.787016390636017249e+00
 8.793507062134699126e+00
 8.799997734042493747e+00
 8.806488406350197806e+00
 8.812979079051723730e+00
 8.819469752137125695e+00
 8.825960425594074010e+00
 </DataArray>
 <DataArray Name="pos.y" type="Float32" NumberOfComponents="1" format="ascii">
 2.606669550625275236e-02
 2.626084461532640982e-02
 2.645499373747818225e-02
 2.664914287242688140e-02
 2.684329201988180577e-02
 2.703744117958603935e-02
 2.723159035126999222e-02
 2.742573953468263256e-02
 2.761988872957648819e-02
 2.781403793569963215e-02
 </DataArray>
 <DataArray Name="pos.z" type="Float32" NumberOfComponents="1" format="ascii">
 0.000000000000000000e+00
 0.000000000000000000e+00
 0.000000000000000000e+00
 0.000000000000000000e+00
 0.000000000000000000e+00
 0.000000000000000000e+00
 0.000000000000000000e+00
 0.000000000000000000e+00
 0.000000000000000000e+00
 0.000000000000000000e+00
 </DataArray>
 <DataArray Name="volume" type="Float32" NumberOfComponents="1" format="ascii">
 8.820465022201000115e-06
 8.952347547213525603e-06
 9.085208719783484970e-06
 9.219048539918338884e-06
 9.353867007610631759e-06
 9.489664122860246706e-06
 9.626439885674984898e-06
 9.764194296047048549e-06
 9.902927353976322464e-06
 1.004263905947094155e-05
 </DataArray>
 <DataArray Name="rho" type="Float32" NumberOfComponents="1" format="ascii">
 1.528855304762397147e-04
 1.528855304762397147e-04
 1.528855304762397147e-04
 1.528855304762397147e-04
 1.528855304762397147e-04
 1.528855304762397147e-04
 1.528855304762397147e-04
 1.528855304762397147e-04
 1.528855304762397147e-04
 1.528855304762397147e-04
 </DataArray>
 <DataArray Name="vel.x" type="Float32" NumberOfComponents="1" format="ascii">
 3.395974095573385020e-13
 4.726790863763610060e-13
 5.193949259140757610e-13
 1.557632238045308294e-13
 1.009929114620676583e-13
 -2.887941001607506858e-13
 -6.298830062480259107e-13
 -7.872309624115070419e-13
 -6.541960357812108907e-13
 3.129878284173748312e-14
 </DataArray>
 <DataArray Name="vel.y" type="Float32" NumberOfComponents="1" format="ascii">
 -2.380847989161166914e-11
 5.503861235910084792e-12
 2.256824987395916891e-11
 -1.434025995406092740e-11
 1.429031049001251123e-11
 -5.992496526585227198e-12
 -5.344012759885870506e-12
 -1.512202739261542510e-11
 -3.316507360127084005e-11
 4.008131525548208174e-11
 </DataArray>
 <DataArray Name="vel.z" type="Float32" NumberOfComponents="1" format="ascii">
 0.000000000000000000e+00
 0.000000000000000000e+00
 0.000000000000000000e+00
 0.000000000000000000e+00
 0.000000000000000000e+00
 0.000000000000000000e+00
 0.000000000000000000e+00
 0.000000000000000000e+00
 0.000000000000000000e+00
 0.000000000000000000e+00
 </DataArray>
 <DataArray Name="p" type="Float32" NumberOfComponents="1" format="ascii">
 1.319999999999999929e+01
 1.319999999999999929e+01
 1.319999999999999929e+01
 1.319999999999999929e+01
 1.319999999999999929e+01
 1.319999999999999929e+01
 1.319999999999999929e+01
 1.319999999999999929e+01
 1.319999999999999929e+01
 1.319999999999999929e+01
 </DataArray>
 <DataArray Name="a" type="Float32" NumberOfComponents="1" format="ascii">
 3.474749704973453390e+02
 3.474749704973453390e+02
 3.474749704973453390e+02
 3.474749704973453390e+02
 3.474749704973453390e+02
 3.474749704973453390e+02
 3.474749704973453390e+02
 3.474749704973453390e+02
 3.474749704973453390e+02
 3.474749704973453390e+02
 </DataArray>
 <DataArray Name="mu" type="Float32" NumberOfComponents="1" format="ascii">
 1.853126952258717352e-05
 1.853126952258717352e-05
 1.853126952258717352e-05
 1.853126952258717352e-05
 1.853126952258717352e-05
 1.853126952258717352e-05
 1.853126952258717352e-05
 1.853126952258717352e-05
 1.853126952258717352e-05
 1.853126952258717352e-05
 </DataArray>
 <DataArray Name="k" type="Float32" NumberOfComponents="1" format="ascii">
 2.626199291280435430e-02
 2.626199291280435430e-02
 2.626199291280435430e-02
 2.626199291280435430e-02
 2.626199291280435430e-02
 2.626199291280435430e-02
 2.626199291280435430e-02
 2.626199291280435430e-02
 2.626199291280435430e-02
 2.626199291280435430e-02
 </DataArray>
 <DataArray Name="mu_t" type="Float32" NumberOfComponents="1" format="ascii">
 0.000000000000000000e+00
 0.000000000000000000e+00
 0.000000000000000000e+00
 0.000000000000000000e+00
 0.000000000000000000e+00
 0.000000000000000000e+00
 0.000000000000000000e+00
 0.000000000000000000e+00
 0.000000000000000000e+00
 0.000000000000000000e+00
 </DataArray>
 <DataArray Name="k_t" type="Float32" NumberOfComponents="1" format="ascii">
 0.000000000000000000e+00
 0.000000000000000000e+00
 0.000000000000000000e+00
 0.000000000000000000e+00
 0.000000000000000000e+00
 0.000000000000000000e+00
 0.000000000000000000e+00
 0.000000000000000000e+00
 0.000000000000000000e+00
 0.000000000000000000e+00
 </DataArray>
 <DataArray Name="S" type="Float32" NumberOfComponents="1" format="ascii">
 0.000000000000000000e+00
 0.000000000000000000e+00
 0.000000000000000000e+00
 0.000000000000000000e+00
 0.000000000000000000e+00
 0.000000000000000000e+00
 0.000000000000000000e+00
 0.000000000000000000e+00
 0.000000000000000000e+00
 0.000000000000000000e+00
 </DataArray>
 <DataArray Name="massf[0]-Ar" type="Float32" NumberOfComponents="1" format="ascii">
 0.000000000000000000e+00
 0.000000000000000000e+00
 0.000000000000000000e+00
 0.000000000000000000e+00
 0.000000000000000000e+00
 0.000000000000000000e+00
 0.000000000000000000e+00
 0.000000000000000000e+00
 0.000000000000000000e+00
 0.000000000000000000e+00
 </DataArray>
 <DataArray Name="massf[1]-He" type="Float32" NumberOfComponents="1" format="ascii">
 0.000000000000000000e+00
 0.000000000000000000e+00
 0.000000000000000000e+00
 0.000000000000000000e+00
 0.000000000000000000e+00
 0.000000000000000000e+00
 0.000000000000000000e+00
 0.000000000000000000e+00
 0.000000000000000000e+00
 0.000000000000000000e+00
 </DataArray>
 <DataArray Name="massf[2]-N" type="Float32" NumberOfComponents="1" format="ascii">
 0.000000000000000000e+00
 0.000000000000000000e+00
 0.000000000000000000e+00
 0.000000000000000000e+00
 0.000000000000000000e+00
 0.000000000000000000e+00
 0.000000000000000000e+00
 0.000000000000000000e+00
 0.000000000000000000e+00
 0.000000000000000000e+00
 </DataArray>
 <DataArray Name="massf[3]-N2" type="Float32" NumberOfComponents="1" format="ascii">
 7.563277885211407980e-01
 7.563277885211407980e-01
 7.563277885211407980e-01
 7.563277885211407980e-01
 7.563277885211407980e-01
 7.563277885211407980e-01
 7.563277885211407980e-01
 7.563277885211407980e-01
 7.563277885211407980e-01
 7.563277885211407980e-01
 </DataArray>
 <DataArray Name="massf[4]-NO" type="Float32" NumberOfComponents="1" format="ascii">
 0.000000000000000000e+00
 0.000000000000000000e+00
 0.000000000000000000e+00
 0.000000000000000000e+00
 0.000000000000000000e+00
 0.000000000000000000e+00
 0.000000000000000000e+00
 0.000000000000000000e+00
 0.000000000000000000e+00
 0.000000000000000000e+00
 </DataArray>
 <DataArray Name="massf[5]-O" type="Float32" NumberOfComponents="1" format="ascii">
 0.000000000000000000e+00
 0.000000000000000000e+00
 0.000000000000000000e+00
 0.000000000000000000e+00
 0.000000000000000000e+00
 0.000000000000000000e+00
 0.000000000000000000e+00
 0.000000000000000000e+00
 0.000000000000000000e+00
 0.000000000000000000e+00
 </DataArray>
 <DataArray Name="massf[6]-O2" type="Float32" NumberOfComponents="1" format="ascii">
 2.436722114788592020e-01
 2.436722114788592020e-01
 2.436722114788592020e-01
 2.436722114788592020e-01
 2.436722114788592020e-01
 2.436722114788592020e-01
 2.436722114788592020e-01
 2.436722114788592020e-01
 2.436722114788592020e-01
 2.436722114788592020e-01
 </DataArray>
 <DataArray Name="dt_chem" type="Float32" NumberOfComponents="1" format="ascii">
 -1.000000000000000000e+00
 -1.000000000000000000e+00
 -1.000000000000000000e+00
 -1.000000000000000000e+00
 -1.000000000000000000e+00
 -1.000000000000000000e+00
 -1.000000000000000000e+00
 -1.000000000000000000e+00
 -1.000000000000000000e+00
 -1.000000000000000000e+00
 </DataArray>
 <DataArray Name="u" type="Float32" NumberOfComponents="1" format="ascii">
 -8.447044764501467580e+04
 -8.447044764501467580e+04
 -8.447044764501467580e+04
 -8.447044764501467580e+04
 -8.447044764501467580e+04
 -8.447044764501467580e+04
 -8.447044764501467580e+04
 -8.447044764501467580e+04
 -8.447044764501467580e+04
 -8.447044764501467580e+04
 </DataArray>
 <DataArray Name="T" type="Float32" NumberOfComponents="1" format="ascii">
 3.000000000000000000e+02
 3.000000000000000000e+02
 3.000000000000000000e+02
 3.000000000000000000e+02
 3.000000000000000000e+02
 3.000000000000000000e+02
 3.000000000000000000e+02
 3.000000000000000000e+02
 3.000000000000000000e+02
 3.000000000000000000e+02
 </DataArray>
 <DataArray Name="vel.vector" type="Float32" NumberOfComponents="3" format="ascii">
 3.395974094381332131e-13 -2.380847949345898940e-11 0.000000000000000000e+00
 4.726790790374191253e-13 5.503861255640174477e-12 0.000000000000000000e+00
 5.193949111949314190e-13 2.256824935265022702e-11 0.000000000000000000e+00
 1.557632197052641332e-13 -1.434025988233944560e-11 0.000000000000000000e+00
 1.009929105947292294e-13 1.429031025457216941e-11 0.000000000000000000e+00
 -2.887941079852962556e-13 -5.992496429629845522e-12 0.000000000000000000e+00
 -6.298830272470634650e-13 -5.344012558861077622e-12 0.000000000000000000e+00
 -7.872309575052138797e-13 -1.512202689457620153e-11 0.000000000000000000e+00
 -6.541960441246164049e-13 -3.316507485306985359e-11 0.000000000000000000e+00
 3.129878219662943217e-14 4.008131673782777682e-11 0.000000000000000000e+00
 </DataArray>
</CellData>
</Piece>
</UnstructuredGrid>
</VTKFile>
