<VTKFile type="UnstructuredGrid" byte_order="BigEndian">
<UnstructuredGrid><Piece NumberOfPoints="20" NumberOfCells="9">
<Points>
 <DataArray type="Float32" NumberOfComponents="3" format="ascii">
 8.709836006164550781e+00 0.000000000000000000e+00 0.000000000000000000e+00
 8.715887069702148438e+00 0.000000000000000000e+00 0.000000000000000000e+00
 8.721938133239746094e+00 0.000000000000000000e+00 0.000000000000000000e+00
 8.727989196777343750e+00 0.000000000000000000e+00 0.000000000000000000e+00
 8.734040260314941406e+00 0.000000000000000000e+00 0.000000000000000000e+00
 8.740091323852539062e+00 0.000000000000000000e+00 0.000000000000000000e+00
 8.746142387390136719e+00 0.000000000000000000e+00 0.000000000000000000e+00
 8.752193450927734375e+00 0.000000000000000000e+00 0.000000000000000000e+00
 8.758243560791015625e+00 0.000000000000000000e+00 0.000000000000000000e+00
 8.764294624328613281e+00 0.000000000000000000e+00 0.000000000000000000e+00
 8.709836006164550781e+00 4.884200170636177063e-02 0.000000000000000000e+00
 8.715887069702148438e+00 4.918611049652099609e-02 0.000000000000000000e+00
 8.721938133239746094e+00 4.953022301197052002e-02 0.000000000000000000e+00
 8.727989196777343750e+00 4.987433180212974548e-02 0.000000000000000000e+00
 8.734040260314941406e+00 5.021844431757926941e-02 0.000000000000000000e+00
 8.740091323852539062e+00 5.056255683302879333e-02 0.000000000000000000e+00
 8.746142387390136719e+00 5.090666562318801880e-02 0.000000000000000000e+00
 8.752193450927734375e+00 5.125077813863754272e-02 0.000000000000000000e+00
 8.758243560791015625e+00 5.159489065408706665e-02 0.000000000000000000e+00
 8.764294624328613281e+00 5.193899944424629211e-02 0.000000000000000000e+00
 </DataArray>
</Points>
<Cells>
 <DataArray type="Int32" Name="connectivity" format="ascii">
 0 1 11 10
 1 2 12 11
 2 3 13 12
 3 4 14 13
 4 5 15 14
 5 6 16 15
 6 7 17 16
 7 8 18 17
 8 9 19 18
 </DataArray>
 <DataArray type="Int32" Name="offsets" format="ascii">
 4
 8
 12
 16
 20
 24
 28
 32
 36
 </DataArray>
 <DataArray type="UInt8" Name="types" format="ascii">
 9
 9
 9
 9
 9
 9
 9
 9
 9
 </DataArray>
</Cells>
<CellData>
 <DataArray Name="pos.x" type="Float32" NumberOfComponents="1" format="ascii">
 8.712865040169075925e+00
 8.718916015488478166e+00
 8.724966991148866313e+00
 8.731017967141786684e+00
 8.737068943467935611e+00
 8.743119920111139365e+00
 8.749170897069619812e+00
 8.755221874339024879e+00
 8.761272851906200643e+00
 </DataArray>
 <DataArray Name="pos.y" type="Float32" NumberOfComponents="1" format="ascii">
 2.450712843976754485e-02
 2.467918329353721227e-02
 2.485123815702371466e-02
 2.502329303002357244e-02
 2.519534791235382432e-02
 2.536740280380552978e-02
 2.553945770421429950e-02
 2.571151261339427521e-02
 2.588356753115256259e-02
 </DataArray>
 <DataArray Name="pos.z" type="Float32" NumberOfComponents="1" format="ascii">
 0.000000000000000000e+00
 0.000000000000000000e+00
 0.000000000000000000e+00
 0.000000000000000000e+00
 0.000000000000000000e+00
 0.000000000000000000e+00
 0.000000000000000000e+00
 0.000000000000000000e+00
 0.000000000000000000e+00
 </DataArray>
 <DataArray Name="volume" type="Float32" NumberOfComponents="1" format="ascii">
 7.268423410620239611e-06
 7.370839534551098543e-06
 7.473972172253665397e-06
 7.577821323736655294e-06
 7.682386988991235375e-06
 7.787669168024076023e-06
 7.893667860832953779e-06
 8.000383067420214922e-06
 8.107814787778817221e-06
 </DataArray>
 <DataArray Name="rho" type="Float32" NumberOfComponents="1" format="ascii">
 1.528855304762397147e-04
 1.528855304762397147e-04
 1.528855304762397147e-04
 1.528855304762397147e-04
 1.528855304762397147e-04
 1.528855304762397147e-04
 1.528855304762397147e-04
 1.528855304762397147e-04
 1.528855304762397147e-04
 </DataArray>
 <DataArray Name="vel.x" type="Float32" NumberOfComponents="1" format="ascii">
 7.093669029348946345e-13
 8.873739540795291112e-13
 1.144439693642286123e-12
 1.812381317452182853e-12
 1.839452288372196838e-12
 2.334066248397223084e-12
 1.967817066951374633e-12
 1.403672345223965933e-12
 1.785950971979483790e-12
 </DataArray>
 <DataArray Name="vel.y" type="Float32" NumberOfComponents="1" format="ascii">
 1.520845314759215689e-12
 -7.350743040546540502e-12
 -8.931097747353508832e-12
 2.686246982491397467e-11
 -1.919037047294888149e-11
 4.328992348298056279e-11
 1.527595778963069387e-11
 -4.080005956715849287e-11
 4.918007091142055697e-11
 </DataArray>
 <DataArray Name="vel.z" type="Float32" NumberOfComponents="1" format="ascii">
 0.000000000000000000e+00
 0.000000000000000000e+00
 0.000000000000000000e+00
 0.000000000000000000e+00
 0.000000000000000000e+00
 0.000000000000000000e+00
 0.000000000000000000e+00
 0.000000000000000000e+00
 0.000000000000000000e+00
 </DataArray>
 <DataArray Name="p" type="Float32" NumberOfComponents="1" format="ascii">
 1.319999999999999929e+01
 1.319999999999999929e+01
 1.319999999999999929e+01
 1.319999999999999929e+01
 1.319999999999999929e+01
 1.319999999999999929e+01
 1.319999999999999929e+01
 1.319999999999999929e+01
 1.319999999999999929e+01
 </DataArray>
 <DataArray Name="a" type="Float32" NumberOfComponents="1" format="ascii">
 3.474749704973453390e+02
 3.474749704973453390e+02
 3.474749704973453390e+02
 3.474749704973453390e+02
 3.474749704973453390e+02
 3.474749704973453390e+02
 3.474749704973453390e+02
 3.474749704973453390e+02
 3.474749704973453390e+02
 </DataArray>
 <DataArray Name="mu" type="Float32" NumberOfComponents="1" format="ascii">
 1.853126952258717352e-05
 1.853126952258717352e-05
 1.853126952258717352e-05
 1.853126952258717352e-05
 1.853126952258717352e-05
 1.853126952258717352e-05
 1.853126952258717352e-05
 1.853126952258717352e-05
 1.853126952258717352e-05
 </DataArray>
 <DataArray Name="k" type="Float32" NumberOfComponents="1" format="ascii">
 2.626199291280435430e-02
 2.626199291280435430e-02
 2.626199291280435430e-02
 2.626199291280435430e-02
 2.626199291280435430e-02
 2.626199291280435430e-02
 2.626199291280435430e-02
 2.626199291280435430e-02
 2.626199291280435430e-02
 </DataArray>
 <DataArray Name="mu_t" type="Float32" NumberOfComponents="1" format="ascii">
 0.000000000000000000e+00
 0.000000000000000000e+00
 0.000000000000000000e+00
 0.000000000000000000e+00
 0.000000000000000000e+00
 0.000000000000000000e+00
 0.000000000000000000e+00
 0.000000000000000000e+00
 0.000000000000000000e+00
 </DataArray>
 <DataArray Name="k_t" type="Float32" NumberOfComponents="1" format="ascii">
 0.000000000000000000e+00
 0.000000000000000000e+00
 0.000000000000000000e+00
 0.000000000000000000e+00
 0.000000000000000000e+00
 0.000000000000000000e+00
 0.000000000000000000e+00
 0.000000000000000000e+00
 0.000000000000000000e+00
 </DataArray>
 <DataArray Name="S" type="Float32" NumberOfComponents="1" format="ascii">
 0.000000000000000000e+00
 0.000000000000000000e+00
 0.000000000000000000e+00
 0.000000000000000000e+00
 0.000000000000000000e+00
 0.000000000000000000e+00
 0.000000000000000000e+00
 0.000000000000000000e+00
 0.000000000000000000e+00
 </DataArray>
 <DataArray Name="massf[0]-Ar" type="Float32" NumberOfComponents="1" format="ascii">
 0.000000000000000000e+00
 0.000000000000000000e+00
 0.000000000000000000e+00
 0.000000000000000000e+00
 0.000000000000000000e+00
 0.000000000000000000e+00
 0.000000000000000000e+00
 0.000000000000000000e+00
 0.000000000000000000e+00
 </DataArray>
 <DataArray Name="massf[1]-He" type="Float32" NumberOfComponents="1" format="ascii">
 0.000000000000000000e+00
 0.000000000000000000e+00
 0.000000000000000000e+00
 0.000000000000000000e+00
 0.000000000000000000e+00
 0.000000000000000000e+00
 0.000000000000000000e+00
 0.000000000000000000e+00
 0.000000000000000000e+00
 </DataArray>
 <DataArray Name="massf[2]-N" type="Float32" NumberOfComponents="1" format="ascii">
 0.000000000000000000e+00
 0.000000000000000000e+00
 0.000000000000000000e+00
 0.000000000000000000e+00
 0.000000000000000000e+00
 0.000000000000000000e+00
 0.000000000000000000e+00
 0.000000000000000000e+00
 0.000000000000000000e+00
 </DataArray>
 <DataArray Name="massf[3]-N2" type="Float32" NumberOfComponents="1" format="ascii">
 7.563277885211407980e-01
 7.563277885211407980e-01
 7.563277885211407980e-01
 7.563277885211407980e-01
 7.563277885211407980e-01
 7.563277885211407980e-01
 7.563277885211407980e-01
 7.563277885211407980e-01
 7.563277885211407980e-01
 </DataArray>
 <DataArray Name="massf[4]-NO" type="Float32" NumberOfComponents="1" format="ascii">
 0.000000000000000000e+00
 0.000000000000000000e+00
 0.000000000000000000e+00
 0.000000000000000000e+00
 0.000000000000000000e+00
 0.000000000000000000e+00
 0.000000000000000000e+00
 0.000000000000000000e+00
 0.000000000000000000e+00
 </DataArray>
 <DataArray Name="massf[5]-O" type="Float32" NumberOfComponents="1" format="ascii">
 0.000000000000000000e+00
 0.000000000000000000e+00
 0.000000000000000000e+00
 0.000000000000000000e+00
 0.000000000000000000e+00
 0.000000000000000000e+00
 0.000000000000000000e+00
 0.000000000000000000e+00
 0.000000000000000000e+00
 </DataArray>
 <DataArray Name="massf[6]-O2" type="Float32" NumberOfComponents="1" format="ascii">
 2.436722114788592020e-01
 2.436722114788592020e-01
 2.436722114788592020e-01
 2.436722114788592020e-01
 2.436722114788592020e-01
 2.436722114788592020e-01
 2.436722114788592020e-01
 2.436722114788592020e-01
 2.436722114788592020e-01
 </DataArray>
 <DataArray Name="dt_chem" type="Float32" NumberOfComponents="1" format="ascii">
 -1.000000000000000000e+00
 -1.000000000000000000e+00
 -1.000000000000000000e+00
 -1.000000000000000000e+00
 -1.000000000000000000e+00
 -1.000000000000000000e+00
 -1.000000000000000000e+00
 -1.000000000000000000e+00
 -1.000000000000000000e+00
 </DataArray>
 <DataArray Name="u" type="Float32" NumberOfComponents="1" format="ascii">
 -8.447044764501467580e+04
 -8.447044764501467580e+04
 -8.447044764501467580e+04
 -8.447044764501467580e+04
 -8.447044764501467580e+04
 -8.447044764501467580e+04
 -8.447044764501467580e+04
 -8.447044764501467580e+04
 -8.447044764501467580e+04
 </DataArray>
 <DataArray Name="T" type="Float32" NumberOfComponents="1" format="ascii">
 3.000000000000000000e+02
 3.000000000000000000e+02
 3.000000000000000000e+02
 3.000000000000000000e+02
 3.000000000000000000e+02
 3.000000000000000000e+02
 3.000000000000000000e+02
 3.000000000000000000e+02
 3.000000000000000000e+02
 </DataArray>
 <DataArray Name="vel.vector" type="Float32" NumberOfComponents="3" format="ascii">
 7.093669185040396563e-13 1.520845298655371103e-12 0.000000000000000000e+00
 8.873739416881409880e-13 -7.350743277956262034e-12 0.000000000000000000e+00
 1.144439686247278321e-12 -8.931098048614583007e-12 0.000000000000000000e+00
 1.812381299724774575e-12 2.686247058125701415e-11 0.000000000000000000e+00
 1.839452201668478892e-12 -1.919036977937604860e-11 0.000000000000000000e+00
 2.334066316958538501e-12 4.328992372903961439e-11 0.000000000000000000e+00
 1.967816968401203681e-12 1.527595758221700351e-11 0.000000000000000000e+00
 1.403672317268345182e-12 -4.080006124618229535e-11 0.000000000000000000e+00
 1.785950944424574693e-12 4.918006973886335231e-11 0.000000000000000000e+00
 </DataArray>
</CellData>
</Piece>
</UnstructuredGrid>
</VTKFile>
