<VTKFile type="UnstructuredGrid" byte_order="BigEndian">
<UnstructuredGrid><Piece NumberOfPoints="38" NumberOfCells="18">
<Points>
 <DataArray type="Float32" NumberOfComponents="3" format="ascii">
 9.095627784729003906e+00 0.000000000000000000e+00 0.000000000000000000e+00
 9.102007865905761719e+00 0.000000000000000000e+00 0.000000000000000000e+00
 9.108387947082519531e+00 0.000000000000000000e+00 0.000000000000000000e+00
 9.114768028259277344e+00 0.000000000000000000e+00 0.000000000000000000e+00
 9.121149063110351562e+00 0.000000000000000000e+00 0.000000000000000000e+00
 9.127529144287109375e+00 0.000000000000000000e+00 0.000000000000000000e+00
 9.133909225463867188e+00 0.000000000000000000e+00 0.000000000000000000e+00
 9.140289306640625000e+00 0.000000000000000000e+00 0.000000000000000000e+00
 9.146669387817382812e+00 0.000000000000000000e+00 0.000000000000000000e+00
 9.153049468994140625e+00 0.000000000000000000e+00 0.000000000000000000e+00
 9.159429550170898438e+00 0.000000000000000000e+00 0.000000000000000000e+00
 9.165809631347656250e+00 0.000000000000000000e+00 0.000000000000000000e+00
 9.172189712524414062e+00 0.000000000000000000e+00 0.000000000000000000e+00
 9.178569793701171875e+00 0.000000000000000000e+00 0.000000000000000000e+00
 9.184949874877929688e+00 0.000000000000000000e+00 0.000000000000000000e+00
 9.191330909729003906e+00 0.000000000000000000e+00 0.000000000000000000e+00
 9.197710990905761719e+00 0.000000000000000000e+00 0.000000000000000000e+00
 9.204091072082519531e+00 0.000000000000000000e+00 0.000000000000000000e+00
 9.210471153259277344e+00 0.000000000000000000e+00 0.000000000000000000e+00
 9.095627784729003906e+00 7.226599752902984619e-02 0.000000000000000000e+00
 9.102007865905761719e+00 7.263849675655364990e-02 0.000000000000000000e+00
 9.108387947082519531e+00 7.301100343465805054e-02 0.000000000000000000e+00
 9.114768028259277344e+00 7.338350266218185425e-02 0.000000000000000000e+00
 9.121149063110351562e+00 7.375600188970565796e-02 0.000000000000000000e+00
 9.127529144287109375e+00 7.412850111722946167e-02 0.000000000000000000e+00
 9.133909225463867188e+00 7.450100034475326538e-02 0.000000000000000000e+00
 9.140289306640625000e+00 7.487349957227706909e-02 0.000000000000000000e+00
 9.146669387817382812e+00 7.524599879980087280e-02 0.000000000000000000e+00
 9.153049468994140625e+00 7.561849802732467651e-02 0.000000000000000000e+00
 9.159429550170898438e+00 7.599099725484848022e-02 0.000000000000000000e+00
 9.165809631347656250e+00 7.636349648237228394e-02 0.000000000000000000e+00
 9.172189712524414062e+00 7.673600316047668457e-02 0.000000000000000000e+00
 9.178569793701171875e+00 7.710850238800048828e-02 0.000000000000000000e+00
 9.184949874877929688e+00 7.748100161552429199e-02 0.000000000000000000e+00
 9.191330909729003906e+00 7.785350084304809570e-02 0.000000000000000000e+00
 9.197710990905761719e+00 7.822600007057189941e-02 0.000000000000000000e+00
 9.204091072082519531e+00 7.859849929809570312e-02 0.000000000000000000e+00
 9.210471153259277344e+00 7.897099852561950684e-02 0.000000000000000000e+00
 </DataArray>
</Points>
<Cells>
 <DataArray type="Int32" Name="connectivity" format="ascii">
 0 1 20 19
 1 2 21 20
 2 3 22 21
 3 4 23 22
 4 5 24 23
 5 6 25 24
 6 7 26 25
 7 8 27 26
 8 9 28 27
 9 10 29 28
 10 11 30 29
 11 12 31 30
 12 13 32 31
 13 14 33 32
 14 15 34 33
 15 16 35 34
 16 17 36 35
 17 18 37 36
 </DataArray>
 <DataArray type="Int32" Name="offsets" format="ascii">
 4
 8
 12
 16
 20
 24
 28
 32
 36
 40
 44
 48
 52
 56
 60
 64
 68
 72
 </DataArray>
 <DataArray type="UInt8" Name="types" format="ascii">
 9
 9
 9
 9
 9
 9
 9
 9
 9
 9
 9
 9
 9
 9
 9
 9
 9
 9
 </DataArray>
</Cells>
<CellData>
 <DataArray Name="pos.x" type="Float32" NumberOfComponents="1" format="ascii">
 9.098820816872070338e+00
 9.105200969555722779e+00
 9.111581122381753772e+00
 9.117961275351451178e+00
 9.124341428454124880e+00
 9.130721581696672473e+00
 9.137101735072917563e+00
 9.143481888576983962e+00
 9.149862042214886415e+00
 9.156242195978183673e+00
 9.162622349871659466e+00
 9.169002503884899014e+00
 9.175382658024112459e+00
 9.181762812282681097e+00
 9.188142966658686461e+00
 9.194523121157452294e+00
 9.200903275765520917e+00
 9.207283430490642573e+00
 </DataArray>
 <DataArray Name="pos.y" type="Float32" NumberOfComponents="1" format="ascii">
 3.622620479752986650e-02
 3.641245438936534240e-02
 3.659870398533904973e-02
 3.678495358543289878e-02
 3.697120318954018325e-02
 3.715745279761626524e-02
 3.734370240961046306e-02
 3.752995202543842751e-02
 3.771620164507104994e-02
 3.790245126844012102e-02
 3.808870089550805971e-02
 3.827495052618134358e-02
 3.846120016044018292e-02
 3.864744979823288989e-02
 3.883369943948262321e-02
 3.901994908417443647e-02
 3.920619873223565172e-02
 3.939244838362041673e-02
 </DataArray>
 <DataArray Name="pos.z" type="Float32" NumberOfComponents="1" format="ascii">
 0.000000000000000000e+00
 0.000000000000000000e+00
 0.000000000000000000e+00
 0.000000000000000000e+00
 0.000000000000000000e+00
 0.000000000000000000e+00
 0.000000000000000000e+00
 0.000000000000000000e+00
 0.000000000000000000e+00
 0.000000000000000000e+00
 0.000000000000000000e+00
 0.000000000000000000e+00
 0.000000000000000000e+00
 0.000000000000000000e+00
 0.000000000000000000e+00
 0.000000000000000000e+00
 0.000000000000000000e+00
 0.000000000000000000e+00
 </DataArray>
 <DataArray Name="volume" type="Float32" NumberOfComponents="1" format="ascii">
 1.674583234195194998e-05
 1.691846587874839679e-05
 1.709198470357882176e-05
 1.726638881639134580e-05
 1.744167821720965874e-05
 1.761785290602902398e-05
 1.779491288284943811e-05
 1.797285814767088082e-05
 1.815168870049842752e-05
 1.833140454132201207e-05
 1.851200567014148202e-05
 1.869349208696709661e-05
 1.887586379179374656e-05
 1.905912078462144540e-05
 1.924326306545018299e-05
 1.942829063427996270e-05
 1.961420349111624959e-05
 1.980100163594265188e-05
 </DataArray>
 <DataArray Name="rho" type="Float32" NumberOfComponents="1" format="ascii">
 1.528855304762397147e-04
 1.528855304762397147e-04
 1.528855304762397147e-04
 1.528855304762397147e-04
 1.528855304762397147e-04
 1.528855304762397147e-04
 1.528855304762397147e-04
 1.528855304762397147e-04
 1.528855304762397147e-04
 1.528855304762397147e-04
 1.528855304762397147e-04
 1.528855304762397147e-04
 1.528855304762397147e-04
 1.528855304762397147e-04
 1.528855304762397147e-04
 1.528855304762397147e-04
 1.528855304762397147e-04
 1.528855304762397147e-04
 </DataArray>
 <DataArray Name="vel.x" type="Float32" NumberOfComponents="1" format="ascii">
 -9.686777612506436382e-13
 -6.556305202189239328e-13
 3.846467499819160757e-14
 -3.686469809110459051e-13
 -5.019810587083101506e-13
 -4.521662466950599291e-13
 -4.448092847823544841e-13
 2.340402630506651808e-13
 5.210989041574978507e-13
 4.822331318871312686e-13
 -1.155249104972631882e-13
 2.700924445929972715e-13
 5.014059138832552474e-13
 4.244568954621542251e-13
 6.988727968409409279e-13
 2.980085300018373861e-13
 1.055692479239419709e-14
 -1.933844625325553491e-13
 </DataArray>
 <DataArray Name="vel.y" type="Float32" NumberOfComponents="1" format="ascii">
 -1.588583740615602413e-11
 -2.507891503630356069e-11
 7.505496825727965369e-11
 -2.154512010487537975e-11
 -1.016485594640014759e-11
 9.984521637032665659e-13
 -4.546443064729239950e-11
 2.313241386318866238e-11
 2.246514239498326743e-11
 3.293970221010439968e-11
 -5.781539234879961051e-11
 9.923785579963043221e-12
 2.084449401154613480e-11
 -2.436830293595724551e-11
 4.206273317683846046e-11
 -2.829806669772359221e-12
 -6.262658173395860160e-12
 1.816859421885417957e-11
 </DataArray>
 <DataArray Name="vel.z" type="Float32" NumberOfComponents="1" format="ascii">
 0.000000000000000000e+00
 0.000000000000000000e+00
 0.000000000000000000e+00
 0.000000000000000000e+00
 0.000000000000000000e+00
 0.000000000000000000e+00
 0.000000000000000000e+00
 0.000000000000000000e+00
 0.000000000000000000e+00
 0.000000000000000000e+00
 0.000000000000000000e+00
 0.000000000000000000e+00
 0.000000000000000000e+00
 0.000000000000000000e+00
 0.000000000000000000e+00
 0.000000000000000000e+00
 0.000000000000000000e+00
 0.000000000000000000e+00
 </DataArray>
 <DataArray Name="p" type="Float32" NumberOfComponents="1" format="ascii">
 1.319999999999999929e+01
 1.319999999999999929e+01
 1.319999999999999929e+01
 1.319999999999999929e+01
 1.319999999999999929e+01
 1.319999999999999929e+01
 1.319999999999999929e+01
 1.319999999999999929e+01
 1.319999999999999929e+01
 1.319999999999999929e+01
 1.319999999999999929e+01
 1.319999999999999929e+01
 1.319999999999999929e+01
 1.319999999999999929e+01
 1.319999999999999929e+01
 1.319999999999999929e+01
 1.319999999999999929e+01
 1.319999999999999929e+01
 </DataArray>
 <DataArray Name="a" type="Float32" NumberOfComponents="1" format="ascii">
 3.474749704973453390e+02
 3.474749704973453390e+02
 3.474749704973453390e+02
 3.474749704973453390e+02
 3.474749704973453390e+02
 3.474749704973453390e+02
 3.474749704973453390e+02
 3.474749704973453390e+02
 3.474749704973453390e+02
 3.474749704973453390e+02
 3.474749704973453390e+02
 3.474749704973453390e+02
 3.474749704973453390e+02
 3.474749704973453390e+02
 3.474749704973453390e+02
 3.474749704973453390e+02
 3.474749704973453390e+02
 3.474749704973453390e+02
 </DataArray>
 <DataArray Name="mu" type="Float32" NumberOfComponents="1" format="ascii">
 1.853126952258717352e-05
 1.853126952258717352e-05
 1.853126952258717352e-05
 1.853126952258717352e-05
 1.853126952258717352e-05
 1.853126952258717352e-05
 1.853126952258717352e-05
 1.853126952258717352e-05
 1.853126952258717352e-05
 1.853126952258717352e-05
 1.853126952258717352e-05
 1.853126952258717352e-05
 1.853126952258717352e-05
 1.853126952258717352e-05
 1.853126952258717352e-05
 1.853126952258717352e-05
 1.853126952258717352e-05
 1.853126952258717352e-05
 </DataArray>
 <DataArray Name="k" type="Float32" NumberOfComponents="1" format="ascii">
 2.626199291280435430e-02
 2.626199291280435430e-02
 2.626199291280435430e-02
 2.626199291280435430e-02
 2.626199291280435430e-02
 2.626199291280435430e-02
 2.626199291280435430e-02
 2.626199291280435430e-02
 2.626199291280435430e-02
 2.626199291280435430e-02
 2.626199291280435430e-02
 2.626199291280435430e-02
 2.626199291280435430e-02
 2.626199291280435430e-02
 2.626199291280435430e-02
 2.626199291280435430e-02
 2.626199291280435430e-02
 2.626199291280435430e-02
 </DataArray>
 <DataArray Name="mu_t" type="Float32" NumberOfComponents="1" format="ascii">
 0.000000000000000000e+00
 0.000000000000000000e+00
 0.000000000000000000e+00
 0.000000000000000000e+00
 0.000000000000000000e+00
 0.000000000000000000e+00
 0.000000000000000000e+00
 0.000000000000000000e+00
 0.000000000000000000e+00
 0.000000000000000000e+00
 0.000000000000000000e+00
 0.000000000000000000e+00
 0.000000000000000000e+00
 0.000000000000000000e+00
 0.000000000000000000e+00
 0.000000000000000000e+00
 0.000000000000000000e+00
 0.000000000000000000e+00
 </DataArray>
 <DataArray Name="k_t" type="Float32" NumberOfComponents="1" format="ascii">
 0.000000000000000000e+00
 0.000000000000000000e+00
 0.000000000000000000e+00
 0.000000000000000000e+00
 0.000000000000000000e+00
 0.000000000000000000e+00
 0.000000000000000000e+00
 0.000000000000000000e+00
 0.000000000000000000e+00
 0.000000000000000000e+00
 0.000000000000000000e+00
 0.000000000000000000e+00
 0.000000000000000000e+00
 0.000000000000000000e+00
 0.000000000000000000e+00
 0.000000000000000000e+00
 0.000000000000000000e+00
 0.000000000000000000e+00
 </DataArray>
 <DataArray Name="S" type="Float32" NumberOfComponents="1" format="ascii">
 0.000000000000000000e+00
 0.000000000000000000e+00
 0.000000000000000000e+00
 0.000000000000000000e+00
 0.000000000000000000e+00
 0.000000000000000000e+00
 0.000000000000000000e+00
 0.000000000000000000e+00
 0.000000000000000000e+00
 0.000000000000000000e+00
 0.000000000000000000e+00
 0.000000000000000000e+00
 0.000000000000000000e+00
 0.000000000000000000e+00
 0.000000000000000000e+00
 0.000000000000000000e+00
 0.000000000000000000e+00
 0.000000000000000000e+00
 </DataArray>
 <DataArray Name="massf[0]-Ar" type="Float32" NumberOfComponents="1" format="ascii">
 0.000000000000000000e+00
 0.000000000000000000e+00
 0.000000000000000000e+00
 0.000000000000000000e+00
 0.000000000000000000e+00
 0.000000000000000000e+00
 0.000000000000000000e+00
 0.000000000000000000e+00
 0.000000000000000000e+00
 0.000000000000000000e+00
 0.000000000000000000e+00
 0.000000000000000000e+00
 0.000000000000000000e+00
 0.000000000000000000e+00
 0.000000000000000000e+00
 0.000000000000000000e+00
 0.000000000000000000e+00
 0.000000000000000000e+00
 </DataArray>
 <DataArray Name="massf[1]-He" type="Float32" NumberOfComponents="1" format="ascii">
 0.000000000000000000e+00
 0.000000000000000000e+00
 0.000000000000000000e+00
 0.000000000000000000e+00
 0.000000000000000000e+00
 0.000000000000000000e+00
 0.000000000000000000e+00
 0.000000000000000000e+00
 0.000000000000000000e+00
 0.000000000000000000e+00
 0.000000000000000000e+00
 0.000000000000000000e+00
 0.000000000000000000e+00
 0.000000000000000000e+00
 0.000000000000000000e+00
 0.000000000000000000e+00
 0.000000000000000000e+00
 0.000000000000000000e+00
 </DataArray>
 <DataArray Name="massf[2]-N" type="Float32" NumberOfComponents="1" format="ascii">
 0.000000000000000000e+00
 0.000000000000000000e+00
 0.000000000000000000e+00
 0.000000000000000000e+00
 0.000000000000000000e+00
 0.000000000000000000e+00
 0.000000000000000000e+00
 0.000000000000000000e+00
 0.000000000000000000e+00
 0.000000000000000000e+00
 0.000000000000000000e+00
 0.000000000000000000e+00
 0.000000000000000000e+00
 0.000000000000000000e+00
 0.000000000000000000e+00
 0.000000000000000000e+00
 0.000000000000000000e+00
 0.000000000000000000e+00
 </DataArray>
 <DataArray Name="massf[3]-N2" type="Float32" NumberOfComponents="1" format="ascii">
 7.563277885211407980e-01
 7.563277885211407980e-01
 7.563277885211407980e-01
 7.563277885211407980e-01
 7.563277885211407980e-01
 7.563277885211407980e-01
 7.563277885211407980e-01
 7.563277885211407980e-01
 7.563277885211407980e-01
 7.563277885211407980e-01
 7.563277885211407980e-01
 7.563277885211407980e-01
 7.563277885211407980e-01
 7.563277885211407980e-01
 7.563277885211407980e-01
 7.563277885211407980e-01
 7.563277885211407980e-01
 7.563277885211407980e-01
 </DataArray>
 <DataArray Name="massf[4]-NO" type="Float32" NumberOfComponents="1" format="ascii">
 0.000000000000000000e+00
 0.000000000000000000e+00
 0.000000000000000000e+00
 0.000000000000000000e+00
 0.000000000000000000e+00
 0.000000000000000000e+00
 0.000000000000000000e+00
 0.000000000000000000e+00
 0.000000000000000000e+00
 0.000000000000000000e+00
 0.000000000000000000e+00
 0.000000000000000000e+00
 0.000000000000000000e+00
 0.000000000000000000e+00
 0.000000000000000000e+00
 0.000000000000000000e+00
 0.000000000000000000e+00
 0.000000000000000000e+00
 </DataArray>
 <DataArray Name="massf[5]-O" type="Float32" NumberOfComponents="1" format="ascii">
 0.000000000000000000e+00
 0.000000000000000000e+00
 0.000000000000000000e+00
 0.000000000000000000e+00
 0.000000000000000000e+00
 0.000000000000000000e+00
 0.000000000000000000e+00
 0.000000000000000000e+00
 0.000000000000000000e+00
 0.000000000000000000e+00
 0.000000000000000000e+00
 0.000000000000000000e+00
 0.000000000000000000e+00
 0.000000000000000000e+00
 0.000000000000000000e+00
 0.000000000000000000e+00
 0.000000000000000000e+00
 0.000000000000000000e+00
 </DataArray>
 <DataArray Name="massf[6]-O2" type="Float32" NumberOfComponents="1" format="ascii">
 2.436722114788592020e-01
 2.436722114788592020e-01
 2.436722114788592020e-01
 2.436722114788592020e-01
 2.436722114788592020e-01
 2.436722114788592020e-01
 2.436722114788592020e-01
 2.436722114788592020e-01
 2.436722114788592020e-01
 2.436722114788592020e-01
 2.436722114788592020e-01
 2.436722114788592020e-01
 2.436722114788592020e-01
 2.436722114788592020e-01
 2.436722114788592020e-01
 2.436722114788592020e-01
 2.436722114788592020e-01
 2.436722114788592020e-01
 </DataArray>
 <DataArray Name="dt_chem" type="Float32" NumberOfComponents="1" format="ascii">
 -1.000000000000000000e+00
 -1.000000000000000000e+00
 -1.000000000000000000e+00
 -1.000000000000000000e+00
 -1.000000000000000000e+00
 -1.000000000000000000e+00
 -1.000000000000000000e+00
 -1.000000000000000000e+00
 -1.000000000000000000e+00
 -1.000000000000000000e+00
 -1.000000000000000000e+00
 -1.000000000000000000e+00
 -1.000000000000000000e+00
 -1.000000000000000000e+00
 -1.000000000000000000e+00
 -1.000000000000000000e+00
 -1.000000000000000000e+00
 -1.000000000000000000e+00
 </DataArray>
 <DataArray Name="u" type="Float32" NumberOfComponents="1" format="ascii">
 -8.447044764501467580e+04
 -8.447044764501467580e+04
 -8.447044764501467580e+04
 -8.447044764501467580e+04
 -8.447044764501467580e+04
 -8.447044764501467580e+04
 -8.447044764501467580e+04
 -8.447044764501467580e+04
 -8.447044764501467580e+04
 -8.447044764501467580e+04
 -8.447044764501467580e+04
 -8.447044764501467580e+04
 -8.447044764501467580e+04
 -8.447044764501467580e+04
 -8.447044764501467580e+04
 -8.447044764501467580e+04
 -8.447044764501467580e+04
 -8.447044764501467580e+04
 </DataArray>
 <DataArray Name="T" type="Float32" NumberOfComponents="1" format="ascii">
 3.000000000000000000e+02
 3.000000000000000000e+02
 3.000000000000000000e+02
 3.000000000000000000e+02
 3.000000000000000000e+02
 3.000000000000000000e+02
 3.000000000000000000e+02
 3.000000000000000000e+02
 3.000000000000000000e+02
 3.000000000000000000e+02
 3.000000000000000000e+02
 3.000000000000000000e+02
 3.000000000000000000e+02
 3.000000000000000000e+02
 3.000000000000000000e+02
 3.000000000000000000e+02
 3.000000000000000000e+02
 3.000000000000000000e+02
 </DataArray>
 <DataArray Name="vel.vector" type="Float32" NumberOfComponents="3" format="ascii">
 -9.686777205017427228e-13 -1.588583778411312153e-11 0.000000000000000000e+00
 -6.556304978089233515e-13 -2.507891463943145993e-11 0.000000000000000000e+00
 3.846467415413723501e-14 7.505496918414067409e-11 0.000000000000000000e+00
 -3.686469803466235762e-13 -2.154511985485996206e-11 0.000000000000000000e+00
 -5.019810522116641138e-13 -1.016485593613447591e-11 0.000000000000000000e+00
 -4.521662449845365028e-13 9.984521889827568941e-13 0.000000000000000000e+00
 -4.448092827229188639e-13 -4.546443083119910966e-11 0.000000000000000000e+00
 2.340402719715195534e-13 2.313241438678392825e-11 0.000000000000000000e+00
 5.210988975393182621e-13 2.246514259340859354e-11 0.000000000000000000e+00
 4.822331227914700147e-13 3.293970304851789876e-11 0.000000000000000000e+00
 -1.155249127696850175e-13 -5.781539136329172379e-11 0.000000000000000000e+00
 2.700924336615506682e-13 9.923785751486668971e-12 0.000000000000000000e+00
 5.014059371692691780e-13 2.084449453321202128e-11 0.000000000000000000e+00
 4.244568834865097839e-13 -2.436830251473232067e-11 0.000000000000000000e+00
 6.988728172563352103e-13 4.206273176987629370e-11 0.000000000000000000e+00
 2.980085254088160607e-13 -2.829806701465376051e-12 0.000000000000000000e+00
 1.055692483436935017e-14 -6.262658360650652511e-12 0.000000000000000000e+00
 -1.933844658843705822e-13 1.816859336589704554e-11 0.000000000000000000e+00
 </DataArray>
</CellData>
</Piece>
</UnstructuredGrid>
</VTKFile>
