<VTKFile type="UnstructuredGrid" byte_order="BigEndian">
<UnstructuredGrid><Piece NumberOfPoints="34" NumberOfCells="16">
<Points>
 <DataArray type="Float32" NumberOfComponents="3" format="ascii">
 8.994118690490722656e+00 0.000000000000000000e+00 0.000000000000000000e+00
 9.000463485717773438e+00 0.000000000000000000e+00 0.000000000000000000e+00
 9.006807327270507812e+00 0.000000000000000000e+00 0.000000000000000000e+00
 9.013152122497558594e+00 0.000000000000000000e+00 0.000000000000000000e+00
 9.019495964050292969e+00 0.000000000000000000e+00 0.000000000000000000e+00
 9.025840759277343750e+00 0.000000000000000000e+00 0.000000000000000000e+00
 9.032184600830078125e+00 0.000000000000000000e+00 0.000000000000000000e+00
 9.038529396057128906e+00 0.000000000000000000e+00 0.000000000000000000e+00
 9.044873237609863281e+00 0.000000000000000000e+00 0.000000000000000000e+00
 9.051218032836914062e+00 0.000000000000000000e+00 0.000000000000000000e+00
 9.057561874389648438e+00 0.000000000000000000e+00 0.000000000000000000e+00
 9.063906669616699219e+00 0.000000000000000000e+00 0.000000000000000000e+00
 9.070250511169433594e+00 0.000000000000000000e+00 0.000000000000000000e+00
 9.076595306396484375e+00 0.000000000000000000e+00 0.000000000000000000e+00
 9.082939147949218750e+00 0.000000000000000000e+00 0.000000000000000000e+00
 9.089283943176269531e+00 0.000000000000000000e+00 0.000000000000000000e+00
 9.095627784729003906e+00 0.000000000000000000e+00 0.000000000000000000e+00
 8.994118690490722656e+00 6.603299826383590698e-02 0.000000000000000000e+00
 9.000463485717773438e+00 6.642255932092666626e-02 0.000000000000000000e+00
 9.006807327270507812e+00 6.681212782859802246e-02 0.000000000000000000e+00
 9.013152122497558594e+00 6.720168888568878174e-02 0.000000000000000000e+00
 9.019495964050292969e+00 6.759124994277954102e-02 0.000000000000000000e+00
 9.025840759277343750e+00 6.798081099987030029e-02 0.000000000000000000e+00
 9.032184600830078125e+00 6.837037205696105957e-02 0.000000000000000000e+00
 9.038529396057128906e+00 6.875994056463241577e-02 0.000000000000000000e+00
 9.044873237609863281e+00 6.914950162172317505e-02 0.000000000000000000e+00
 9.051218032836914062e+00 6.953906267881393433e-02 0.000000000000000000e+00
 9.057561874389648438e+00 6.992862373590469360e-02 0.000000000000000000e+00
 9.063906669616699219e+00 7.031818479299545288e-02 0.000000000000000000e+00
 9.070250511169433594e+00 7.070775330066680908e-02 0.000000000000000000e+00
 9.076595306396484375e+00 7.109731435775756836e-02 0.000000000000000000e+00
 9.082939147949218750e+00 7.148687541484832764e-02 0.000000000000000000e+00
 9.089283943176269531e+00 7.187643647193908691e-02 0.000000000000000000e+00
 9.095627784729003906e+00 7.226599752902984619e-02 0.000000000000000000e+00
 </DataArray>
</Points>
<Cells>
 <DataArray type="Int32" Name="connectivity" format="ascii">
 0 1 18 17
 1 2 19 18
 2 3 20 19
 3 4 21 20
 4 5 22 21
 5 6 23 22
 6 7 24 23
 7 8 25 24
 8 9 26 25
 9 10 27 26
 10 11 28 27
 11 12 29 28
 12 13 30 29
 13 14 31 30
 14 15 32 31
 15 16 33 32
 </DataArray>
 <DataArray type="Int32" Name="offsets" format="ascii">
 4
 8
 12
 16
 20
 24
 28
 32
 36
 40
 44
 48
 52
 56
 60
 64
 </DataArray>
 <DataArray type="UInt8" Name="types" format="ascii">
 9
 9
 9
 9
 9
 9
 9
 9
 9
 9
 9
 9
 9
 9
 9
 9
 </DataArray>
</Cells>
<CellData>
 <DataArray Name="pos.x" type="Float32" NumberOfComponents="1" format="ascii">
 8.997294266104958638e+00
 9.003638560421224568e+00
 9.009982854944921016e+00
 9.016327149679547404e+00
 9.022671444614147163e+00
 9.029015739755399395e+00
 9.035360035090144848e+00
 9.041704330621156416e+00
 9.048048626342733769e+00
 9.054392922249409281e+00
 9.060737218341806454e+00
 9.067081514615004778e+00
 9.073425811067732383e+00
 9.079770107692725745e+00
 9.086114404491999252e+00
 9.092458701464407156e+00
 </DataArray>
 <DataArray Name="pos.y" type="Float32" NumberOfComponents="1" format="ascii">
 3.311398610289803535e-02
 3.330876679456452882e-02
 3.350354749271854116e-02
 3.369832819726247680e-02
 3.389310890806714743e-02
 3.408788962504254866e-02
 3.428267034806700697e-02
 3.447745107705282169e-02
 3.467223181189342529e-02
 3.486701255248214615e-02
 3.506179329872876477e-02
 3.525657405055125648e-02
 3.545135480783934839e-02
 3.564613557052204867e-02
 3.584091633849037506e-02
 3.603569711167960848e-02
 </DataArray>
 <DataArray Name="pos.z" type="Float32" NumberOfComponents="1" format="ascii">
 0.000000000000000000e+00
 0.000000000000000000e+00
 0.000000000000000000e+00
 0.000000000000000000e+00
 0.000000000000000000e+00
 0.000000000000000000e+00
 0.000000000000000000e+00
 0.000000000000000000e+00
 0.000000000000000000e+00
 0.000000000000000000e+00
 0.000000000000000000e+00
 0.000000000000000000e+00
 0.000000000000000000e+00
 0.000000000000000000e+00
 0.000000000000000000e+00
 0.000000000000000000e+00
 </DataArray>
 <DataArray Name="volume" type="Float32" NumberOfComponents="1" format="ascii">
 1.391349494550210297e-05
 1.407765872310308497e-05
 1.424278530682157546e-05
 1.440887469670083752e-05
 1.457592689272905841e-05
 1.474394189490622628e-05
 1.491291970323651869e-05
 1.508286031770741141e-05
 1.525376373833142529e-05
 1.542562996510870939e-05
 1.559845899802631260e-05
 1.577225083709718435e-05
 1.594700548231699799e-05
 1.612272293369028346e-05
 1.629940319120348822e-05
 1.647704625487015465e-05
 </DataArray>
 <DataArray Name="rho" type="Float32" NumberOfComponents="1" format="ascii">
 1.528855304762397147e-04
 1.528855304762397147e-04
 1.528855304762397147e-04
 1.528855304762397147e-04
 1.528855304762397147e-04
 1.528855304762397147e-04
 1.528855304762397147e-04
 1.528855304762397147e-04
 1.528855304762397147e-04
 1.528855304762397147e-04
 1.528855304762397147e-04
 1.528855304762397147e-04
 1.528855304762397147e-04
 1.528855304762397147e-04
 1.528855304762397147e-04
 1.528855304762397147e-04
 </DataArray>
 <DataArray Name="vel.x" type="Float32" NumberOfComponents="1" format="ascii">
 2.438037517450674106e-12
 2.403972356814480744e-12
 2.650416700120629876e-12
 2.383994838871331956e-12
 2.250136340752232889e-12
 1.578363536247617426e-12
 1.055310408879011123e-12
 2.314431964577108564e-13
 -4.384353822132618776e-13
 -4.856699490254807296e-13
 -2.891810839196742875e-13
 -4.445056728088225070e-13
 -3.662607080049580301e-13
 -6.476605541242217653e-13
 -5.432279997775119980e-13
 -7.540150114110724621e-13
 </DataArray>
 <DataArray Name="vel.y" type="Float32" NumberOfComponents="1" format="ascii">
 -1.347976057518774883e-11
 -3.698338292703668018e-12
 3.904078579252813215e-11
 4.588972629137229747e-12
 3.448485838646461102e-11
 6.668245582426258767e-13
 2.364871488810254343e-11
 -3.744565447504393129e-12
 -3.652829618296393174e-11
 -1.471655390330296103e-11
 2.092140726399799001e-11
 -1.164899135461713558e-11
 1.654926531291083486e-11
 -2.387118424986268247e-11
 1.261006857491602561e-11
 -1.923957402775924034e-11
 </DataArray>
 <DataArray Name="vel.z" type="Float32" NumberOfComponents="1" format="ascii">
 0.000000000000000000e+00
 0.000000000000000000e+00
 0.000000000000000000e+00
 0.000000000000000000e+00
 0.000000000000000000e+00
 0.000000000000000000e+00
 0.000000000000000000e+00
 0.000000000000000000e+00
 0.000000000000000000e+00
 0.000000000000000000e+00
 0.000000000000000000e+00
 0.000000000000000000e+00
 0.000000000000000000e+00
 0.000000000000000000e+00
 0.000000000000000000e+00
 0.000000000000000000e+00
 </DataArray>
 <DataArray Name="p" type="Float32" NumberOfComponents="1" format="ascii">
 1.319999999999999929e+01
 1.319999999999999929e+01
 1.319999999999999929e+01
 1.319999999999999929e+01
 1.319999999999999929e+01
 1.319999999999999929e+01
 1.319999999999999929e+01
 1.319999999999999929e+01
 1.319999999999999929e+01
 1.319999999999999929e+01
 1.319999999999999929e+01
 1.319999999999999929e+01
 1.319999999999999929e+01
 1.319999999999999929e+01
 1.319999999999999929e+01
 1.319999999999999929e+01
 </DataArray>
 <DataArray Name="a" type="Float32" NumberOfComponents="1" format="ascii">
 3.474749704973453390e+02
 3.474749704973453390e+02
 3.474749704973453390e+02
 3.474749704973453390e+02
 3.474749704973453390e+02
 3.474749704973453390e+02
 3.474749704973453390e+02
 3.474749704973453390e+02
 3.474749704973453390e+02
 3.474749704973453390e+02
 3.474749704973453390e+02
 3.474749704973453390e+02
 3.474749704973453390e+02
 3.474749704973453390e+02
 3.474749704973453390e+02
 3.474749704973453390e+02
 </DataArray>
 <DataArray Name="mu" type="Float32" NumberOfComponents="1" format="ascii">
 1.853126952258717352e-05
 1.853126952258717352e-05
 1.853126952258717352e-05
 1.853126952258717352e-05
 1.853126952258717352e-05
 1.853126952258717352e-05
 1.853126952258717352e-05
 1.853126952258717352e-05
 1.853126952258717352e-05
 1.853126952258717352e-05
 1.853126952258717352e-05
 1.853126952258717352e-05
 1.853126952258717352e-05
 1.853126952258717352e-05
 1.853126952258717352e-05
 1.853126952258717352e-05
 </DataArray>
 <DataArray Name="k" type="Float32" NumberOfComponents="1" format="ascii">
 2.626199291280435430e-02
 2.626199291280435430e-02
 2.626199291280435430e-02
 2.626199291280435430e-02
 2.626199291280435430e-02
 2.626199291280435430e-02
 2.626199291280435430e-02
 2.626199291280435430e-02
 2.626199291280435430e-02
 2.626199291280435430e-02
 2.626199291280435430e-02
 2.626199291280435430e-02
 2.626199291280435430e-02
 2.626199291280435430e-02
 2.626199291280435430e-02
 2.626199291280435430e-02
 </DataArray>
 <DataArray Name="mu_t" type="Float32" NumberOfComponents="1" format="ascii">
 0.000000000000000000e+00
 0.000000000000000000e+00
 0.000000000000000000e+00
 0.000000000000000000e+00
 0.000000000000000000e+00
 0.000000000000000000e+00
 0.000000000000000000e+00
 0.000000000000000000e+00
 0.000000000000000000e+00
 0.000000000000000000e+00
 0.000000000000000000e+00
 0.000000000000000000e+00
 0.000000000000000000e+00
 0.000000000000000000e+00
 0.000000000000000000e+00
 0.000000000000000000e+00
 </DataArray>
 <DataArray Name="k_t" type="Float32" NumberOfComponents="1" format="ascii">
 0.000000000000000000e+00
 0.000000000000000000e+00
 0.000000000000000000e+00
 0.000000000000000000e+00
 0.000000000000000000e+00
 0.000000000000000000e+00
 0.000000000000000000e+00
 0.000000000000000000e+00
 0.000000000000000000e+00
 0.000000000000000000e+00
 0.000000000000000000e+00
 0.000000000000000000e+00
 0.000000000000000000e+00
 0.000000000000000000e+00
 0.000000000000000000e+00
 0.000000000000000000e+00
 </DataArray>
 <DataArray Name="S" type="Float32" NumberOfComponents="1" format="ascii">
 0.000000000000000000e+00
 0.000000000000000000e+00
 0.000000000000000000e+00
 0.000000000000000000e+00
 0.000000000000000000e+00
 0.000000000000000000e+00
 0.000000000000000000e+00
 0.000000000000000000e+00
 0.000000000000000000e+00
 0.000000000000000000e+00
 0.000000000000000000e+00
 0.000000000000000000e+00
 0.000000000000000000e+00
 0.000000000000000000e+00
 0.000000000000000000e+00
 0.000000000000000000e+00
 </DataArray>
 <DataArray Name="massf[0]-Ar" type="Float32" NumberOfComponents="1" format="ascii">
 0.000000000000000000e+00
 0.000000000000000000e+00
 0.000000000000000000e+00
 0.000000000000000000e+00
 0.000000000000000000e+00
 0.000000000000000000e+00
 0.000000000000000000e+00
 0.000000000000000000e+00
 0.000000000000000000e+00
 0.000000000000000000e+00
 0.000000000000000000e+00
 0.000000000000000000e+00
 0.000000000000000000e+00
 0.000000000000000000e+00
 0.000000000000000000e+00
 0.000000000000000000e+00
 </DataArray>
 <DataArray Name="massf[1]-He" type="Float32" NumberOfComponents="1" format="ascii">
 0.000000000000000000e+00
 0.000000000000000000e+00
 0.000000000000000000e+00
 0.000000000000000000e+00
 0.000000000000000000e+00
 0.000000000000000000e+00
 0.000000000000000000e+00
 0.000000000000000000e+00
 0.000000000000000000e+00
 0.000000000000000000e+00
 0.000000000000000000e+00
 0.000000000000000000e+00
 0.000000000000000000e+00
 0.000000000000000000e+00
 0.000000000000000000e+00
 0.000000000000000000e+00
 </DataArray>
 <DataArray Name="massf[2]-N" type="Float32" NumberOfComponents="1" format="ascii">
 0.000000000000000000e+00
 0.000000000000000000e+00
 0.000000000000000000e+00
 0.000000000000000000e+00
 0.000000000000000000e+00
 0.000000000000000000e+00
 0.000000000000000000e+00
 0.000000000000000000e+00
 0.000000000000000000e+00
 0.000000000000000000e+00
 0.000000000000000000e+00
 0.000000000000000000e+00
 0.000000000000000000e+00
 0.000000000000000000e+00
 0.000000000000000000e+00
 0.000000000000000000e+00
 </DataArray>
 <DataArray Name="massf[3]-N2" type="Float32" NumberOfComponents="1" format="ascii">
 7.563277885211407980e-01
 7.563277885211407980e-01
 7.563277885211407980e-01
 7.563277885211407980e-01
 7.563277885211407980e-01
 7.563277885211407980e-01
 7.563277885211407980e-01
 7.563277885211407980e-01
 7.563277885211407980e-01
 7.563277885211407980e-01
 7.563277885211407980e-01
 7.563277885211407980e-01
 7.563277885211407980e-01
 7.563277885211407980e-01
 7.563277885211407980e-01
 7.563277885211407980e-01
 </DataArray>
 <DataArray Name="massf[4]-NO" type="Float32" NumberOfComponents="1" format="ascii">
 0.000000000000000000e+00
 0.000000000000000000e+00
 0.000000000000000000e+00
 0.000000000000000000e+00
 0.000000000000000000e+00
 0.000000000000000000e+00
 0.000000000000000000e+00
 0.000000000000000000e+00
 0.000000000000000000e+00
 0.000000000000000000e+00
 0.000000000000000000e+00
 0.000000000000000000e+00
 0.000000000000000000e+00
 0.000000000000000000e+00
 0.000000000000000000e+00
 0.000000000000000000e+00
 </DataArray>
 <DataArray Name="massf[5]-O" type="Float32" NumberOfComponents="1" format="ascii">
 0.000000000000000000e+00
 0.000000000000000000e+00
 0.000000000000000000e+00
 0.000000000000000000e+00
 0.000000000000000000e+00
 0.000000000000000000e+00
 0.000000000000000000e+00
 0.000000000000000000e+00
 0.000000000000000000e+00
 0.000000000000000000e+00
 0.000000000000000000e+00
 0.000000000000000000e+00
 0.000000000000000000e+00
 0.000000000000000000e+00
 0.000000000000000000e+00
 0.000000000000000000e+00
 </DataArray>
 <DataArray Name="massf[6]-O2" type="Float32" NumberOfComponents="1" format="ascii">
 2.436722114788592020e-01
 2.436722114788592020e-01
 2.436722114788592020e-01
 2.436722114788592020e-01
 2.436722114788592020e-01
 2.436722114788592020e-01
 2.436722114788592020e-01
 2.436722114788592020e-01
 2.436722114788592020e-01
 2.436722114788592020e-01
 2.436722114788592020e-01
 2.436722114788592020e-01
 2.436722114788592020e-01
 2.436722114788592020e-01
 2.436722114788592020e-01
 2.436722114788592020e-01
 </DataArray>
 <DataArray Name="dt_chem" type="Float32" NumberOfComponents="1" format="ascii">
 -1.000000000000000000e+00
 -1.000000000000000000e+00
 -1.000000000000000000e+00
 -1.000000000000000000e+00
 -1.000000000000000000e+00
 -1.000000000000000000e+00
 -1.000000000000000000e+00
 -1.000000000000000000e+00
 -1.000000000000000000e+00
 -1.000000000000000000e+00
 -1.000000000000000000e+00
 -1.000000000000000000e+00
 -1.000000000000000000e+00
 -1.000000000000000000e+00
 -1.000000000000000000e+00
 -1.000000000000000000e+00
 </DataArray>
 <DataArray Name="u" type="Float32" NumberOfComponents="1" format="ascii">
 -8.447044764501467580e+04
 -8.447044764501467580e+04
 -8.447044764501467580e+04
 -8.447044764501467580e+04
 -8.447044764501467580e+04
 -8.447044764501467580e+04
 -8.447044764501467580e+04
 -8.447044764501467580e+04
 -8.447044764501467580e+04
 -8.447044764501467580e+04
 -8.447044764501467580e+04
 -8.447044764501467580e+04
 -8.447044764501467580e+04
 -8.447044764501467580e+04
 -8.447044764501467580e+04
 -8.447044764501467580e+04
 </DataArray>
 <DataArray Name="T" type="Float32" NumberOfComponents="1" format="ascii">
 3.000000000000000000e+02
 3.000000000000000000e+02
 3.000000000000000000e+02
 3.000000000000000000e+02
 3.000000000000000000e+02
 3.000000000000000000e+02
 3.000000000000000000e+02
 3.000000000000000000e+02
 3.000000000000000000e+02
 3.000000000000000000e+02
 3.000000000000000000e+02
 3.000000000000000000e+02
 3.000000000000000000e+02
 3.000000000000000000e+02
 3.000000000000000000e+02
 3.000000000000000000e+02
 </DataArray>
 <DataArray Name="vel.vector" type="Float32" NumberOfComponents="3" format="ascii">
 2.438037619012511925e-12 -1.347976071042200630e-11 0.000000000000000000e+00
 2.403972420433886370e-12 -3.698338076757456960e-12 0.000000000000000000e+00
 2.650416778410269458e-12 3.904078449412651253e-11 0.000000000000000000e+00
 2.383994911203668465e-12 4.588972431218696357e-12 0.000000000000000000e+00
 2.250136275222525128e-12 3.448485941248691233e-11 0.000000000000000000e+00
 1.578363524948334096e-12 6.668245599791844391e-13 0.000000000000000000e+00
 1.055310461413327960e-12 2.364871493076847742e-11 0.000000000000000000e+00
 2.314432011926020882e-13 -3.744565421626155910e-12 0.000000000000000000e+00
 -4.384353936761481441e-13 -3.652829774769550397e-11 0.000000000000000000e+00
 -4.856699352580318152e-13 -1.471655436402485861e-11 0.000000000000000000e+00
 -2.891810868457106443e-13 2.092140696796640498e-11 0.000000000000000000e+00
 -4.445056790095686106e-13 -1.164899166711252931e-11 0.000000000000000000e+00
 -3.662607055750916052e-13 1.654926543026569163e-11 0.000000000000000000e+00
 -6.476605276389824084e-13 -2.387118454294512304e-11 0.000000000000000000e+00
 -5.432280059808336503e-13 1.261006837144362791e-11 0.000000000000000000e+00
 -7.540150144882962202e-13 -1.923957347604865475e-11 0.000000000000000000e+00
 </DataArray>
</CellData>
</Piece>
</UnstructuredGrid>
</VTKFile>
