<VTKFile type="UnstructuredGrid" byte_order="BigEndian">
<UnstructuredGrid><Piece NumberOfPoints="30" NumberOfCells="14">
<Points>
 <DataArray type="Float32" NumberOfComponents="3" format="ascii">
 8.905529022216796875e+00 0.000000000000000000e+00 0.000000000000000000e+00
 8.911856651306152344e+00 0.000000000000000000e+00 0.000000000000000000e+00
 8.918184280395507812e+00 0.000000000000000000e+00 0.000000000000000000e+00
 8.924512863159179688e+00 0.000000000000000000e+00 0.000000000000000000e+00
 8.930840492248535156e+00 0.000000000000000000e+00 0.000000000000000000e+00
 8.937168121337890625e+00 0.000000000000000000e+00 0.000000000000000000e+00
 8.943495750427246094e+00 0.000000000000000000e+00 0.000000000000000000e+00
 8.949824333190917969e+00 0.000000000000000000e+00 0.000000000000000000e+00
 8.956151962280273438e+00 0.000000000000000000e+00 0.000000000000000000e+00
 8.962479591369628906e+00 0.000000000000000000e+00 0.000000000000000000e+00
 8.968807220458984375e+00 0.000000000000000000e+00 0.000000000000000000e+00
 8.975135803222656250e+00 0.000000000000000000e+00 0.000000000000000000e+00
 8.981463432312011719e+00 0.000000000000000000e+00 0.000000000000000000e+00
 8.987791061401367188e+00 0.000000000000000000e+00 0.000000000000000000e+00
 8.994118690490722656e+00 0.000000000000000000e+00 0.000000000000000000e+00
 8.905529022216796875e+00 6.052099913358688354e-02 0.000000000000000000e+00
 8.911856651306152344e+00 6.091471388936042786e-02 0.000000000000000000e+00
 8.918184280395507812e+00 6.130842864513397217e-02 0.000000000000000000e+00
 8.924512863159179688e+00 6.170214340090751648e-02 0.000000000000000000e+00
 8.930840492248535156e+00 6.209585815668106079e-02 0.000000000000000000e+00
 8.937168121337890625e+00 6.248957291245460510e-02 0.000000000000000000e+00
 8.943495750427246094e+00 6.288328766822814941e-02 0.000000000000000000e+00
 8.949824333190917969e+00 6.327699869871139526e-02 0.000000000000000000e+00
 8.956151962280273438e+00 6.367071717977523804e-02 0.000000000000000000e+00
 8.962479591369628906e+00 6.406442821025848389e-02 0.000000000000000000e+00
 8.968807220458984375e+00 6.445813924074172974e-02 0.000000000000000000e+00
 8.975135803222656250e+00 6.485185772180557251e-02 0.000000000000000000e+00
 8.981463432312011719e+00 6.524556875228881836e-02 0.000000000000000000e+00
 8.987791061401367188e+00 6.563928723335266113e-02 0.000000000000000000e+00
 8.994118690490722656e+00 6.603299826383590698e-02 0.000000000000000000e+00
 </DataArray>
</Points>
<Cells>
 <DataArray type="Int32" Name="connectivity" format="ascii">
 0 1 16 15
 1 2 17 16
 2 3 18 17
 3 4 19 18
 4 5 20 19
 5 6 21 20
 6 7 22 21
 7 8 23 22
 8 9 24 23
 9 10 25 24
 10 11 26 25
 11 12 27 26
 12 13 28 27
 13 14 29 28
 </DataArray>
 <DataArray type="Int32" Name="offsets" format="ascii">
 4
 8
 12
 16
 20
 24
 28
 32
 36
 40
 44
 48
 52
 56
 </DataArray>
 <DataArray type="UInt8" Name="types" format="ascii">
 9
 9
 9
 9
 9
 9
 9
 9
 9
 9
 9
 9
 9
 9
 </DataArray>
</Cells>
<CellData>
 <DataArray Name="pos.x" type="Float32" NumberOfComponents="1" format="ascii">
 8.908696347897269163e+00
 8.915024183008766201e+00
 8.921352018404475004e+00
 8.927679854076691512e+00
 8.934007690016867897e+00
 8.940335526232004781e+00
 8.946663362698553001e+00
 8.952991199430094582e+00
 8.959319036409954862e+00
 8.965646873634295133e+00
 8.971974711103975153e+00
 8.978302548812450823e+00
 8.984630386753130082e+00
 8.990958224922890096e+00
 </DataArray>
 <DataArray Name="pos.y" type="Float32" NumberOfComponents="1" format="ascii">
 3.035903494523598672e-02
 3.055589140276612423e-02
 3.075274786907929506e-02
 3.094960434399878293e-02
 3.114646082735255880e-02
 3.134331731900820428e-02
 3.154017381877532999e-02
 3.173703032653778233e-02
 3.193388684212170731e-02
 3.213074336538318532e-02
 3.232759989619966162e-02
 3.252445643443318407e-02
 3.272131297992462995e-02
 3.291816953256949951e-02
 </DataArray>
 <DataArray Name="pos.z" type="Float32" NumberOfComponents="1" format="ascii">
 0.000000000000000000e+00
 0.000000000000000000e+00
 0.000000000000000000e+00
 0.000000000000000000e+00
 0.000000000000000000e+00
 0.000000000000000000e+00
 0.000000000000000000e+00
 0.000000000000000000e+00
 0.000000000000000000e+00
 0.000000000000000000e+00
 0.000000000000000000e+00
 0.000000000000000000e+00
 0.000000000000000000e+00
 0.000000000000000000e+00
 </DataArray>
 <DataArray Name="volume" type="Float32" NumberOfComponents="1" format="ascii">
 1.166436400649607306e-05
 1.181612496148206980e-05
 1.196886680353758539e-05
 1.212258953266915722e-05
 1.227729314888713433e-05
 1.243297765217097111e-05
 1.258964304253440641e-05
 1.274728931997399114e-05
 1.290591648448972697e-05
 1.306552453608161391e-05
 1.322611347475337212e-05
 1.338768330049385127e-05
 1.355023401331419323e-05
 1.371376561321068630e-05
 </DataArray>
 <DataArray Name="rho" type="Float32" NumberOfComponents="1" format="ascii">
 1.528855304762397147e-04
 1.528855304762397147e-04
 1.528855304762397147e-04
 1.528855304762397147e-04
 1.528855304762397147e-04
 1.528855304762397147e-04
 1.528855304762397147e-04
 1.528855304762397147e-04
 1.528855304762397147e-04
 1.528855304762397147e-04
 1.528855304762397147e-04
 1.528855304762397147e-04
 1.528855304762397147e-04
 1.528855304762397147e-04
 </DataArray>
 <DataArray Name="vel.x" type="Float32" NumberOfComponents="1" format="ascii">
 -1.978156082721301959e-12
 -9.434969725701973798e-13
 -1.728982469443942176e-14
 9.364412873520006392e-13
 2.251602604759796068e-12
 2.726258853789044058e-12
 3.550383932507716117e-12
 3.442873025013355634e-12
 3.819817884999692882e-12
 4.669378949915261083e-12
 4.862519820856370861e-12
 4.525819578754868405e-12
 4.882799398331926289e-12
 4.731526738160662722e-12
 </DataArray>
 <DataArray Name="vel.y" type="Float32" NumberOfComponents="1" format="ascii">
 -7.131460319076912168e-11
 -4.002881746734433017e-13
 -5.129315932038934892e-12
 -8.321785701028943381e-12
 5.999485201942079251e-11
 -1.292973628592637539e-11
 5.341545757722456704e-11
 -1.835275994329394198e-11
 -2.106315171412469677e-11
 4.437264118526598481e-11
 3.899800912336319824e-11
 -2.851820337719967977e-11
 3.550119935396655344e-11
 3.275793111910554225e-11
 </DataArray>
 <DataArray Name="vel.z" type="Float32" NumberOfComponents="1" format="ascii">
 0.000000000000000000e+00
 0.000000000000000000e+00
 0.000000000000000000e+00
 0.000000000000000000e+00
 0.000000000000000000e+00
 0.000000000000000000e+00
 0.000000000000000000e+00
 0.000000000000000000e+00
 0.000000000000000000e+00
 0.000000000000000000e+00
 0.000000000000000000e+00
 0.000000000000000000e+00
 0.000000000000000000e+00
 0.000000000000000000e+00
 </DataArray>
 <DataArray Name="p" type="Float32" NumberOfComponents="1" format="ascii">
 1.319999999999999929e+01
 1.319999999999999041e+01
 1.319999999999998863e+01
 1.319999999999998330e+01
 1.319999999999999929e+01
 1.319999999999999929e+01
 1.319999999999999929e+01
 1.319999999999999929e+01
 1.319999999999999929e+01
 1.319999999999999929e+01
 1.319999999999999929e+01
 1.319999999999999929e+01
 1.319999999999999929e+01
 1.319999999999999929e+01
 </DataArray>
 <DataArray Name="a" type="Float32" NumberOfComponents="1" format="ascii">
 3.474749704973453390e+02
 3.474749704973451685e+02
 3.474749704973451685e+02
 3.474749704973451117e+02
 3.474749704973453390e+02
 3.474749704973453390e+02
 3.474749704973453390e+02
 3.474749704973453390e+02
 3.474749704973453390e+02
 3.474749704973453390e+02
 3.474749704973453390e+02
 3.474749704973453390e+02
 3.474749704973453390e+02
 3.474749704973453390e+02
 </DataArray>
 <DataArray Name="mu" type="Float32" NumberOfComponents="1" format="ascii">
 1.853126952258717352e-05
 1.853126952258717352e-05
 1.853126952258717352e-05
 1.853126952258717352e-05
 1.853126952258717352e-05
 1.853126952258717352e-05
 1.853126952258717352e-05
 1.853126952258717352e-05
 1.853126952258717352e-05
 1.853126952258717352e-05
 1.853126952258717352e-05
 1.853126952258717352e-05
 1.853126952258717352e-05
 1.853126952258717352e-05
 </DataArray>
 <DataArray Name="k" type="Float32" NumberOfComponents="1" format="ascii">
 2.626199291280435430e-02
 2.626199291280435430e-02
 2.626199291280435430e-02
 2.626199291280435430e-02
 2.626199291280435430e-02
 2.626199291280435430e-02
 2.626199291280435430e-02
 2.626199291280435430e-02
 2.626199291280435430e-02
 2.626199291280435430e-02
 2.626199291280435430e-02
 2.626199291280435430e-02
 2.626199291280435430e-02
 2.626199291280435430e-02
 </DataArray>
 <DataArray Name="mu_t" type="Float32" NumberOfComponents="1" format="ascii">
 0.000000000000000000e+00
 0.000000000000000000e+00
 0.000000000000000000e+00
 0.000000000000000000e+00
 0.000000000000000000e+00
 0.000000000000000000e+00
 0.000000000000000000e+00
 0.000000000000000000e+00
 0.000000000000000000e+00
 0.000000000000000000e+00
 0.000000000000000000e+00
 0.000000000000000000e+00
 0.000000000000000000e+00
 0.000000000000000000e+00
 </DataArray>
 <DataArray Name="k_t" type="Float32" NumberOfComponents="1" format="ascii">
 0.000000000000000000e+00
 0.000000000000000000e+00
 0.000000000000000000e+00
 0.000000000000000000e+00
 0.000000000000000000e+00
 0.000000000000000000e+00
 0.000000000000000000e+00
 0.000000000000000000e+00
 0.000000000000000000e+00
 0.000000000000000000e+00
 0.000000000000000000e+00
 0.000000000000000000e+00
 0.000000000000000000e+00
 0.000000000000000000e+00
 </DataArray>
 <DataArray Name="S" type="Float32" NumberOfComponents="1" format="ascii">
 0.000000000000000000e+00
 0.000000000000000000e+00
 0.000000000000000000e+00
 0.000000000000000000e+00
 0.000000000000000000e+00
 0.000000000000000000e+00
 0.000000000000000000e+00
 0.000000000000000000e+00
 0.000000000000000000e+00
 0.000000000000000000e+00
 0.000000000000000000e+00
 0.000000000000000000e+00
 0.000000000000000000e+00
 0.000000000000000000e+00
 </DataArray>
 <DataArray Name="massf[0]-Ar" type="Float32" NumberOfComponents="1" format="ascii">
 0.000000000000000000e+00
 0.000000000000000000e+00
 0.000000000000000000e+00
 0.000000000000000000e+00
 0.000000000000000000e+00
 0.000000000000000000e+00
 0.000000000000000000e+00
 0.000000000000000000e+00
 0.000000000000000000e+00
 0.000000000000000000e+00
 0.000000000000000000e+00
 0.000000000000000000e+00
 0.000000000000000000e+00
 0.000000000000000000e+00
 </DataArray>
 <DataArray Name="massf[1]-He" type="Float32" NumberOfComponents="1" format="ascii">
 0.000000000000000000e+00
 0.000000000000000000e+00
 0.000000000000000000e+00
 0.000000000000000000e+00
 0.000000000000000000e+00
 0.000000000000000000e+00
 0.000000000000000000e+00
 0.000000000000000000e+00
 0.000000000000000000e+00
 0.000000000000000000e+00
 0.000000000000000000e+00
 0.000000000000000000e+00
 0.000000000000000000e+00
 0.000000000000000000e+00
 </DataArray>
 <DataArray Name="massf[2]-N" type="Float32" NumberOfComponents="1" format="ascii">
 0.000000000000000000e+00
 0.000000000000000000e+00
 0.000000000000000000e+00
 0.000000000000000000e+00
 0.000000000000000000e+00
 0.000000000000000000e+00
 0.000000000000000000e+00
 0.000000000000000000e+00
 0.000000000000000000e+00
 0.000000000000000000e+00
 0.000000000000000000e+00
 0.000000000000000000e+00
 0.000000000000000000e+00
 0.000000000000000000e+00
 </DataArray>
 <DataArray Name="massf[3]-N2" type="Float32" NumberOfComponents="1" format="ascii">
 7.563277885211407980e-01
 7.563277885211394658e-01
 7.563277885211381335e-01
 7.563277885211349139e-01
 7.563277885211407980e-01
 7.563277885211407980e-01
 7.563277885211407980e-01
 7.563277885211407980e-01
 7.563277885211407980e-01
 7.563277885211407980e-01
 7.563277885211407980e-01
 7.563277885211407980e-01
 7.563277885211407980e-01
 7.563277885211407980e-01
 </DataArray>
 <DataArray Name="massf[4]-NO" type="Float32" NumberOfComponents="1" format="ascii">
 0.000000000000000000e+00
 0.000000000000000000e+00
 0.000000000000000000e+00
 0.000000000000000000e+00
 0.000000000000000000e+00
 0.000000000000000000e+00
 0.000000000000000000e+00
 0.000000000000000000e+00
 0.000000000000000000e+00
 0.000000000000000000e+00
 0.000000000000000000e+00
 0.000000000000000000e+00
 0.000000000000000000e+00
 0.000000000000000000e+00
 </DataArray>
 <DataArray Name="massf[5]-O" type="Float32" NumberOfComponents="1" format="ascii">
 0.000000000000000000e+00
 0.000000000000000000e+00
 0.000000000000000000e+00
 0.000000000000000000e+00
 0.000000000000000000e+00
 0.000000000000000000e+00
 0.000000000000000000e+00
 0.000000000000000000e+00
 0.000000000000000000e+00
 0.000000000000000000e+00
 0.000000000000000000e+00
 0.000000000000000000e+00
 0.000000000000000000e+00
 0.000000000000000000e+00
 </DataArray>
 <DataArray Name="massf[6]-O2" type="Float32" NumberOfComponents="1" format="ascii">
 2.436722114788592020e-01
 2.436722114788604232e-01
 2.436722114788617555e-01
 2.436722114788649474e-01
 2.436722114788592020e-01
 2.436722114788592020e-01
 2.436722114788592020e-01
 2.436722114788592020e-01
 2.436722114788592020e-01
 2.436722114788592020e-01
 2.436722114788592020e-01
 2.436722114788592020e-01
 2.436722114788592020e-01
 2.436722114788592020e-01
 </DataArray>
 <DataArray Name="dt_chem" type="Float32" NumberOfComponents="1" format="ascii">
 -1.000000000000000000e+00
 -1.000000000000000000e+00
 -1.000000000000000000e+00
 -1.000000000000000000e+00
 -1.000000000000000000e+00
 -1.000000000000000000e+00
 -1.000000000000000000e+00
 -1.000000000000000000e+00
 -1.000000000000000000e+00
 -1.000000000000000000e+00
 -1.000000000000000000e+00
 -1.000000000000000000e+00
 -1.000000000000000000e+00
 -1.000000000000000000e+00
 </DataArray>
 <DataArray Name="u" type="Float32" NumberOfComponents="1" format="ascii">
 -8.447044764501467580e+04
 -8.447044764501469035e+04
 -8.447044764501467580e+04
 -8.447044764501469035e+04
 -8.447044764501467580e+04
 -8.447044764501467580e+04
 -8.447044764501467580e+04
 -8.447044764501467580e+04
 -8.447044764501467580e+04
 -8.447044764501467580e+04
 -8.447044764501467580e+04
 -8.447044764501467580e+04
 -8.447044764501467580e+04
 -8.447044764501467580e+04
 </DataArray>
 <DataArray Name="T" type="Float32" NumberOfComponents="1" format="ascii">
 3.000000000000000000e+02
 2.999999999999999432e+02
 2.999999999999999432e+02
 2.999999999999998863e+02
 3.000000000000000000e+02
 3.000000000000000000e+02
 3.000000000000000000e+02
 3.000000000000000000e+02
 3.000000000000000000e+02
 3.000000000000000000e+02
 3.000000000000000000e+02
 3.000000000000000000e+02
 3.000000000000000000e+02
 3.000000000000000000e+02
 </DataArray>
 <DataArray Name="vel.vector" type="Float32" NumberOfComponents="3" format="ascii">
 -1.978156137158459948e-12 -7.131460005860290607e-11 0.000000000000000000e+00
 -9.434970166255496338e-13 -4.002881739181146648e-13 0.000000000000000000e+00
 -1.728982456066906898e-14 -5.129315808899415075e-12 0.000000000000000000e+00
 9.364412457274484680e-13 -8.321785968656847388e-12 0.000000000000000000e+00
 2.251602550240594525e-12 5.999484936625165687e-11 0.000000000000000000e+00
 2.726258888779975464e-12 -1.292973627470273001e-11 0.000000000000000000e+00
 3.550383945172264077e-12 5.341545608605891005e-11 0.000000000000000000e+00
 3.442872939865559978e-12 -1.835276028372412327e-11 0.000000000000000000e+00
 3.819817726014029802e-12 -2.106315122318846988e-11 0.000000000000000000e+00
 4.669379032734566337e-12 4.437264097822968267e-11 0.000000000000000000e+00
 4.862519675102872085e-12 3.899800968265587642e-11 0.000000000000000000e+00
 4.525819389394891701e-12 -2.851820342375521733e-11 0.000000000000000000e+00
 4.882799459898778949e-12 3.550119920259220407e-11 0.000000000000000000e+00
 4.731526802304042434e-12 3.275793178381114501e-11 0.000000000000000000e+00
 </DataArray>
</CellData>
</Piece>
</UnstructuredGrid>
</VTKFile>
