<VTKFile type="UnstructuredGrid" byte_order="BigEndian">
<UnstructuredGrid><Piece NumberOfPoints="26" NumberOfCells="12">
<Points>
 <DataArray type="Float32" NumberOfComponents="3" format="ascii">
 8.829201698303222656e+00 0.000000000000000000e+00 0.000000000000000000e+00
 8.835562705993652344e+00 0.000000000000000000e+00 0.000000000000000000e+00
 8.841922760009765625e+00 0.000000000000000000e+00 0.000000000000000000e+00
 8.848283767700195312e+00 0.000000000000000000e+00 0.000000000000000000e+00
 8.854644775390625000e+00 0.000000000000000000e+00 0.000000000000000000e+00
 8.861004829406738281e+00 0.000000000000000000e+00 0.000000000000000000e+00
 8.867365837097167969e+00 0.000000000000000000e+00 0.000000000000000000e+00
 8.873725891113281250e+00 0.000000000000000000e+00 0.000000000000000000e+00
 8.880086898803710938e+00 0.000000000000000000e+00 0.000000000000000000e+00
 8.886446952819824219e+00 0.000000000000000000e+00 0.000000000000000000e+00
 8.892807960510253906e+00 0.000000000000000000e+00 0.000000000000000000e+00
 8.899168014526367188e+00 0.000000000000000000e+00 0.000000000000000000e+00
 8.905529022216796875e+00 0.000000000000000000e+00 0.000000000000000000e+00
 8.829201698303222656e+00 5.582199990749359131e-02 0.000000000000000000e+00
 8.835562705993652344e+00 5.621358379721641541e-02 0.000000000000000000e+00
 8.841922760009765625e+00 5.660516768693923950e-02 0.000000000000000000e+00
 8.848283767700195312e+00 5.699675157666206360e-02 0.000000000000000000e+00
 8.854644775390625000e+00 5.738833174109458923e-02 0.000000000000000000e+00
 8.861004829406738281e+00 5.777991563081741333e-02 0.000000000000000000e+00
 8.867365837097167969e+00 5.817149952054023743e-02 0.000000000000000000e+00
 8.873725891113281250e+00 5.856308341026306152e-02 0.000000000000000000e+00
 8.880086898803710938e+00 5.895466729998588562e-02 0.000000000000000000e+00
 8.886446952819824219e+00 5.934625118970870972e-02 0.000000000000000000e+00
 8.892807960510253906e+00 5.973783507943153381e-02 0.000000000000000000e+00
 8.899168014526367188e+00 6.012941524386405945e-02 0.000000000000000000e+00
 8.905529022216796875e+00 6.052099913358688354e-02 0.000000000000000000e+00
 </DataArray>
</Points>
<Cells>
 <DataArray type="Int32" Name="connectivity" format="ascii">
 0 1 14 13
 1 2 15 14
 2 3 16 15
 3 4 17 16
 4 5 18 17
 5 6 19 18
 6 7 20 19
 7 8 21 20
 8 9 22 21
 9 10 23 22
 10 11 24 23
 11 12 25 24
 </DataArray>
 <DataArray type="Int32" Name="offsets" format="ascii">
 4
 8
 12
 16
 20
 24
 28
 32
 36
 40
 44
 48
 </DataArray>
 <DataArray type="UInt8" Name="types" format="ascii">
 9
 9
 9
 9
 9
 9
 9
 9
 9
 9
 9
 9
 </DataArray>
</Cells>
<CellData>
 <DataArray Name="pos.x" type="Float32" NumberOfComponents="1" format="ascii">
 8.832385996886081614e+00
 8.838746554498065677e+00
 8.845107112463624688e+00
 8.851467670779541663e+00
 8.857828229436785605e+00
 8.864188788419633980e+00
 8.870549347736657708e+00
 8.876909907371675956e+00
 8.883270467323363562e+00
 8.889631027574527167e+00
 8.895991588136640260e+00
 8.902352148987180414e+00
 </DataArray>
 <DataArray Name="pos.y" type="Float32" NumberOfComponents="1" format="ascii">
 2.800900988750786372e-02
 2.820480076242776191e-02
 2.840059164826322716e-02
 2.859638254480327893e-02
 2.879217345181022542e-02
 2.898796436906958887e-02
 2.918375529640118357e-02
 2.937954623357951975e-02
 2.957533718042414106e-02
 2.977112813671156655e-02
 2.996691910231588651e-02
 3.016271007699542275e-02
 </DataArray>
 <DataArray Name="pos.z" type="Float32" NumberOfComponents="1" format="ascii">
 0.000000000000000000e+00
 0.000000000000000000e+00
 0.000000000000000000e+00
 0.000000000000000000e+00
 0.000000000000000000e+00
 0.000000000000000000e+00
 0.000000000000000000e+00
 0.000000000000000000e+00
 0.000000000000000000e+00
 0.000000000000000000e+00
 0.000000000000000000e+00
 0.000000000000000000e+00
 </DataArray>
 <DataArray Name="volume" type="Float32" NumberOfComponents="1" format="ascii">
 9.979773572729496109e-06
 1.011978465612056276e-05
 1.026077105550545993e-05
 1.040273277088430284e-05
 1.054566980224838567e-05
 1.068958214960641762e-05
 1.083446981295852235e-05
 1.098033279229562136e-05
 1.112717108762989838e-05
 1.127498469894900874e-05
 1.142377362626226982e-05
 1.157353786956980866e-05
 </DataArray>
 <DataArray Name="rho" type="Float32" NumberOfComponents="1" format="ascii">
 1.528855304762397147e-04
 1.528855304762397147e-04
 1.528855304762397147e-04
 1.528855304762397147e-04
 1.528855304762397147e-04
 1.528855304762397147e-04
 1.528855304762397147e-04
 1.528855304762397147e-04
 1.528855304762397147e-04
 1.528855304762397147e-04
 1.528855304762397147e-04
 1.528855304762397147e-04
 </DataArray>
 <DataArray Name="vel.x" type="Float32" NumberOfComponents="1" format="ascii">
 2.357453508011581201e-13
 9.041912648742134661e-13
 1.504710319092710803e-12
 1.041665886740693022e-12
 9.677641559020288697e-13
 1.254972261980536176e-12
 2.894592694505909721e-13
 -5.726213489841440632e-13
 -1.350131878667037559e-12
 -8.096471493350913412e-13
 -1.813249851751826050e-12
 -1.666513994866574695e-12
 </DataArray>
 <DataArray Name="vel.y" type="Float32" NumberOfComponents="1" format="ascii">
 -3.153641935824362166e-11
 4.498006630015132447e-12
 4.781795550503669161e-11
 -1.690407940733767088e-11
 -1.782318593261635211e-11
 6.238098827369230960e-11
 -2.829338587287355746e-12
 -2.655114057473563403e-12
 -6.739934995292311648e-11
 8.047868686677960355e-11
 -6.028547182189113723e-11
 1.937467006521410956e-11
 </DataArray>
 <DataArray Name="vel.z" type="Float32" NumberOfComponents="1" format="ascii">
 0.000000000000000000e+00
 0.000000000000000000e+00
 0.000000000000000000e+00
 0.000000000000000000e+00
 0.000000000000000000e+00
 0.000000000000000000e+00
 0.000000000000000000e+00
 0.000000000000000000e+00
 0.000000000000000000e+00
 0.000000000000000000e+00
 0.000000000000000000e+00
 0.000000000000000000e+00
 </DataArray>
 <DataArray Name="p" type="Float32" NumberOfComponents="1" format="ascii">
 1.319999999999999929e+01
 1.319999999999999929e+01
 1.319999999999999929e+01
 1.319999999999999929e+01
 1.319999999999999929e+01
 1.319999999999999929e+01
 1.319999999999999929e+01
 1.319999999999999929e+01
 1.319999999999999929e+01
 1.319999999999999929e+01
 1.319999999999999929e+01
 1.319999999999999929e+01
 </DataArray>
 <DataArray Name="a" type="Float32" NumberOfComponents="1" format="ascii">
 3.474749704973453390e+02
 3.474749704973453390e+02
 3.474749704973453390e+02
 3.474749704973453390e+02
 3.474749704973453390e+02
 3.474749704973453390e+02
 3.474749704973453390e+02
 3.474749704973453390e+02
 3.474749704973453390e+02
 3.474749704973453390e+02
 3.474749704973453390e+02
 3.474749704973453390e+02
 </DataArray>
 <DataArray Name="mu" type="Float32" NumberOfComponents="1" format="ascii">
 1.853126952258717352e-05
 1.853126952258717352e-05
 1.853126952258717352e-05
 1.853126952258717352e-05
 1.853126952258717352e-05
 1.853126952258717352e-05
 1.853126952258717352e-05
 1.853126952258717352e-05
 1.853126952258717352e-05
 1.853126952258717352e-05
 1.853126952258717352e-05
 1.853126952258717352e-05
 </DataArray>
 <DataArray Name="k" type="Float32" NumberOfComponents="1" format="ascii">
 2.626199291280435430e-02
 2.626199291280435430e-02
 2.626199291280435430e-02
 2.626199291280435430e-02
 2.626199291280435430e-02
 2.626199291280435430e-02
 2.626199291280435430e-02
 2.626199291280435430e-02
 2.626199291280435430e-02
 2.626199291280435430e-02
 2.626199291280435430e-02
 2.626199291280435430e-02
 </DataArray>
 <DataArray Name="mu_t" type="Float32" NumberOfComponents="1" format="ascii">
 0.000000000000000000e+00
 0.000000000000000000e+00
 0.000000000000000000e+00
 0.000000000000000000e+00
 0.000000000000000000e+00
 0.000000000000000000e+00
 0.000000000000000000e+00
 0.000000000000000000e+00
 0.000000000000000000e+00
 0.000000000000000000e+00
 0.000000000000000000e+00
 0.000000000000000000e+00
 </DataArray>
 <DataArray Name="k_t" type="Float32" NumberOfComponents="1" format="ascii">
 0.000000000000000000e+00
 0.000000000000000000e+00
 0.000000000000000000e+00
 0.000000000000000000e+00
 0.000000000000000000e+00
 0.000000000000000000e+00
 0.000000000000000000e+00
 0.000000000000000000e+00
 0.000000000000000000e+00
 0.000000000000000000e+00
 0.000000000000000000e+00
 0.000000000000000000e+00
 </DataArray>
 <DataArray Name="S" type="Float32" NumberOfComponents="1" format="ascii">
 0.000000000000000000e+00
 0.000000000000000000e+00
 0.000000000000000000e+00
 0.000000000000000000e+00
 0.000000000000000000e+00
 0.000000000000000000e+00
 0.000000000000000000e+00
 0.000000000000000000e+00
 0.000000000000000000e+00
 0.000000000000000000e+00
 0.000000000000000000e+00
 0.000000000000000000e+00
 </DataArray>
 <DataArray Name="massf[0]-Ar" type="Float32" NumberOfComponents="1" format="ascii">
 0.000000000000000000e+00
 0.000000000000000000e+00
 0.000000000000000000e+00
 0.000000000000000000e+00
 0.000000000000000000e+00
 0.000000000000000000e+00
 0.000000000000000000e+00
 0.000000000000000000e+00
 0.000000000000000000e+00
 0.000000000000000000e+00
 0.000000000000000000e+00
 0.000000000000000000e+00
 </DataArray>
 <DataArray Name="massf[1]-He" type="Float32" NumberOfComponents="1" format="ascii">
 0.000000000000000000e+00
 0.000000000000000000e+00
 0.000000000000000000e+00
 0.000000000000000000e+00
 0.000000000000000000e+00
 0.000000000000000000e+00
 0.000000000000000000e+00
 0.000000000000000000e+00
 0.000000000000000000e+00
 0.000000000000000000e+00
 0.000000000000000000e+00
 0.000000000000000000e+00
 </DataArray>
 <DataArray Name="massf[2]-N" type="Float32" NumberOfComponents="1" format="ascii">
 0.000000000000000000e+00
 0.000000000000000000e+00
 0.000000000000000000e+00
 0.000000000000000000e+00
 0.000000000000000000e+00
 0.000000000000000000e+00
 0.000000000000000000e+00
 0.000000000000000000e+00
 0.000000000000000000e+00
 0.000000000000000000e+00
 0.000000000000000000e+00
 0.000000000000000000e+00
 </DataArray>
 <DataArray Name="massf[3]-N2" type="Float32" NumberOfComponents="1" format="ascii">
 7.563277885211407980e-01
 7.563277885211407980e-01
 7.563277885211407980e-01
 7.563277885211407980e-01
 7.563277885211407980e-01
 7.563277885211407980e-01
 7.563277885211407980e-01
 7.563277885211407980e-01
 7.563277885211407980e-01
 7.563277885211407980e-01
 7.563277885211407980e-01
 7.563277885211407980e-01
 </DataArray>
 <DataArray Name="massf[4]-NO" type="Float32" NumberOfComponents="1" format="ascii">
 0.000000000000000000e+00
 0.000000000000000000e+00
 0.000000000000000000e+00
 0.000000000000000000e+00
 0.000000000000000000e+00
 0.000000000000000000e+00
 0.000000000000000000e+00
 0.000000000000000000e+00
 0.000000000000000000e+00
 0.000000000000000000e+00
 0.000000000000000000e+00
 0.000000000000000000e+00
 </DataArray>
 <DataArray Name="massf[5]-O" type="Float32" NumberOfComponents="1" format="ascii">
 0.000000000000000000e+00
 0.000000000000000000e+00
 0.000000000000000000e+00
 0.000000000000000000e+00
 0.000000000000000000e+00
 0.000000000000000000e+00
 0.000000000000000000e+00
 0.000000000000000000e+00
 0.000000000000000000e+00
 0.000000000000000000e+00
 0.000000000000000000e+00
 0.000000000000000000e+00
 </DataArray>
 <DataArray Name="massf[6]-O2" type="Float32" NumberOfComponents="1" format="ascii">
 2.436722114788592020e-01
 2.436722114788592020e-01
 2.436722114788592020e-01
 2.436722114788592020e-01
 2.436722114788592020e-01
 2.436722114788592020e-01
 2.436722114788592020e-01
 2.436722114788592020e-01
 2.436722114788592020e-01
 2.436722114788592020e-01
 2.436722114788592020e-01
 2.436722114788592020e-01
 </DataArray>
 <DataArray Name="dt_chem" type="Float32" NumberOfComponents="1" format="ascii">
 -1.000000000000000000e+00
 -1.000000000000000000e+00
 -1.000000000000000000e+00
 -1.000000000000000000e+00
 -1.000000000000000000e+00
 -1.000000000000000000e+00
 -1.000000000000000000e+00
 -1.000000000000000000e+00
 -1.000000000000000000e+00
 -1.000000000000000000e+00
 -1.000000000000000000e+00
 -1.000000000000000000e+00
 </DataArray>
 <DataArray Name="u" type="Float32" NumberOfComponents="1" format="ascii">
 -8.447044764501467580e+04
 -8.447044764501467580e+04
 -8.447044764501467580e+04
 -8.447044764501467580e+04
 -8.447044764501467580e+04
 -8.447044764501467580e+04
 -8.447044764501467580e+04
 -8.447044764501467580e+04
 -8.447044764501467580e+04
 -8.447044764501467580e+04
 -8.447044764501467580e+04
 -8.447044764501467580e+04
 </DataArray>
 <DataArray Name="T" type="Float32" NumberOfComponents="1" format="ascii">
 3.000000000000000000e+02
 3.000000000000000000e+02
 3.000000000000000000e+02
 3.000000000000000000e+02
 3.000000000000000000e+02
 3.000000000000000000e+02
 3.000000000000000000e+02
 3.000000000000000000e+02
 3.000000000000000000e+02
 3.000000000000000000e+02
 3.000000000000000000e+02
 3.000000000000000000e+02
 </DataArray>
 <DataArray Name="vel.vector" type="Float32" NumberOfComponents="3" format="ascii">
 2.357453425180788820e-13 -3.153641930930817239e-11 0.000000000000000000e+00
 9.041912726361067687e-13 4.498006567904555553e-12 0.000000000000000000e+00
 1.504710310344659074e-12 4.781795445718550752e-11 0.000000000000000000e+00
 1.041665885492815136e-12 -1.690407883114808385e-11 0.000000000000000000e+00
 9.677641717512064368e-13 -1.782318563570139958e-11 0.000000000000000000e+00
 1.254972254588482272e-12 6.238098926303337066e-11 0.000000000000000000e+00
 2.894592660181161126e-13 -2.829338542967296810e-12 0.000000000000000000e+00
 -5.726213231881105425e-13 -2.655113975902345658e-12 0.000000000000000000e+00
 -1.350131920326014257e-12 -6.739934999000496418e-11 0.000000000000000000e+00
 -8.096471626820034295e-13 8.047868621519072008e-11 0.000000000000000000e+00
 -1.813249854085152712e-12 -6.028547105962900332e-11 0.000000000000000000e+00
 -1.666514040481181791e-12 1.937467027091077654e-11 0.000000000000000000e+00
 </DataArray>
</CellData>
</Piece>
</UnstructuredGrid>
</VTKFile>
