<VTKFile type="UnstructuredGrid" byte_order="BigEndian">
<UnstructuredGrid><Piece NumberOfPoints="46" NumberOfCells="22">
<Points>
 <DataArray type="Float32" NumberOfComponents="3" format="ascii">
 9.338763236999511719e+00 0.000000000000000000e+00 0.000000000000000000e+00
 9.345194816589355469e+00 0.000000000000000000e+00 0.000000000000000000e+00
 9.351626396179199219e+00 0.000000000000000000e+00 0.000000000000000000e+00
 9.358057975769042969e+00 0.000000000000000000e+00 0.000000000000000000e+00
 9.364489555358886719e+00 0.000000000000000000e+00 0.000000000000000000e+00
 9.370922088623046875e+00 0.000000000000000000e+00 0.000000000000000000e+00
 9.377353668212890625e+00 0.000000000000000000e+00 0.000000000000000000e+00
 9.383785247802734375e+00 0.000000000000000000e+00 0.000000000000000000e+00
 9.390216827392578125e+00 0.000000000000000000e+00 0.000000000000000000e+00
 9.396648406982421875e+00 0.000000000000000000e+00 0.000000000000000000e+00
 9.403079986572265625e+00 0.000000000000000000e+00 0.000000000000000000e+00
 9.409511566162109375e+00 0.000000000000000000e+00 0.000000000000000000e+00
 9.415944099426269531e+00 0.000000000000000000e+00 0.000000000000000000e+00
 9.422375679016113281e+00 0.000000000000000000e+00 0.000000000000000000e+00
 9.428807258605957031e+00 0.000000000000000000e+00 0.000000000000000000e+00
 9.435238838195800781e+00 0.000000000000000000e+00 0.000000000000000000e+00
 9.441670417785644531e+00 0.000000000000000000e+00 0.000000000000000000e+00
 9.448101997375488281e+00 0.000000000000000000e+00 0.000000000000000000e+00
 9.454534530639648438e+00 0.000000000000000000e+00 0.000000000000000000e+00
 9.460966110229492188e+00 0.000000000000000000e+00 0.000000000000000000e+00
 9.467397689819335938e+00 0.000000000000000000e+00 0.000000000000000000e+00
 9.473829269409179688e+00 0.000000000000000000e+00 0.000000000000000000e+00
 9.480260848999023438e+00 0.000000000000000000e+00 0.000000000000000000e+00
 9.338763236999511719e+00 8.570499718189239502e-02 0.000000000000000000e+00
 9.345194816589355469e+00 8.598458766937255859e-02 0.000000000000000000e+00
 9.351626396179199219e+00 8.626417815685272217e-02 0.000000000000000000e+00
 9.358057975769042969e+00 8.654377609491348267e-02 0.000000000000000000e+00
 9.364489555358886719e+00 8.682336658239364624e-02 0.000000000000000000e+00
 9.370922088623046875e+00 8.710295706987380981e-02 0.000000000000000000e+00
 9.377353668212890625e+00 8.738254755735397339e-02 0.000000000000000000e+00
 9.383785247802734375e+00 8.766213804483413696e-02 0.000000000000000000e+00
 9.390216827392578125e+00 8.794172853231430054e-02 0.000000000000000000e+00
 9.396648406982421875e+00 8.822131901979446411e-02 0.000000000000000000e+00
 9.403079986572265625e+00 8.850090950727462769e-02 0.000000000000000000e+00
 9.409511566162109375e+00 8.878049999475479126e-02 0.000000000000000000e+00
 9.415944099426269531e+00 8.906009048223495483e-02 0.000000000000000000e+00
 9.422375679016113281e+00 8.933968096971511841e-02 0.000000000000000000e+00
 9.428807258605957031e+00 8.961927145719528198e-02 0.000000000000000000e+00
 9.435238838195800781e+00 8.989886194467544556e-02 0.000000000000000000e+00
 9.441670417785644531e+00 9.017845243215560913e-02 0.000000000000000000e+00
 9.448101997375488281e+00 9.045804291963577271e-02 0.000000000000000000e+00
 9.454534530639648438e+00 9.073763340711593628e-02 0.000000000000000000e+00
 9.460966110229492188e+00 9.101722389459609985e-02 0.000000000000000000e+00
 9.467397689819335938e+00 9.129682183265686035e-02 0.000000000000000000e+00
 9.473829269409179688e+00 9.157641232013702393e-02 0.000000000000000000e+00
 9.480260848999023438e+00 9.185600280761718750e-02 0.000000000000000000e+00
 </DataArray>
</Points>
<Cells>
 <DataArray type="Int32" Name="connectivity" format="ascii">
 0 1 24 23
 1 2 25 24
 2 3 26 25
 3 4 27 26
 4 5 28 27
 5 6 29 28
 6 7 30 29
 7 8 31 30
 8 9 32 31
 9 10 33 32
 10 11 34 33
 11 12 35 34
 12 13 36 35
 13 14 37 36
 14 15 38 37
 15 16 39 38
 16 17 40 39
 17 18 41 40
 18 19 42 41
 19 20 43 42
 20 21 44 43
 21 22 45 44
 </DataArray>
 <DataArray type="Int32" Name="offsets" format="ascii">
 4
 8
 12
 16
 20
 24
 28
 32
 36
 40
 44
 48
 52
 56
 60
 64
 68
 72
 76
 80
 84
 88
 </DataArray>
 <DataArray type="UInt8" Name="types" format="ascii">
 9
 9
 9
 9
 9
 9
 9
 9
 9
 9
 9
 9
 9
 9
 9
 9
 9
 9
 9
 9
 9
 9
 </DataArray>
</Cells>
<CellData>
 <DataArray Name="pos.x" type="Float32" NumberOfComponents="1" format="ascii">
 9.341980609278625280e+00
 9.348412330886247901e+00
 9.354844052527459652e+00
 9.361275774206417211e+00
 9.367707495921241190e+00
 9.374139217672000868e+00
 9.380570939456683632e+00
 9.387002661277152882e+00
 9.393434383132637677e+00
 9.399866105022756102e+00
 9.406297826943077922e+00
 9.412729548903129739e+00
 9.419161270892699278e+00
 9.425592992914422652e+00
 9.432024714974323487e+00
 9.438456437062917814e+00
 9.444888159180882425e+00
 9.451319881335601636e+00
 9.457751603516838301e+00
 9.464183325733760199e+00
 9.470615047978769852e+00
 9.477046770256096764e+00
 </DataArray>
 <DataArray Name="pos.y" type="Float32" NumberOfComponents="1" format="ascii">
 4.292243566932562454e-02
 4.306223100070729476e-02
 4.320202633286545496e-02
 4.334182166583295387e-02
 4.348161699956754750e-02
 4.362141233408629165e-02
 4.376120766936362344e-02
 4.390100300540383804e-02
 4.404079834220153006e-02
 4.418059367973935225e-02
 4.432038901800817304e-02
 4.446018435702035754e-02
 4.459997969675188328e-02
 4.473977503720216742e-02
 4.487957037837069646e-02
 4.501936572023586963e-02
 4.515916106279380809e-02
 4.529895640604292284e-02
 4.543875174998076444e-02
 4.557854709460185810e-02
 4.571834243989585100e-02
 4.585813778583742312e-02
 </DataArray>
 <DataArray Name="pos.z" type="Float32" NumberOfComponents="1" format="ascii">
 0.000000000000000000e+00
 0.000000000000000000e+00
 0.000000000000000000e+00
 0.000000000000000000e+00
 0.000000000000000000e+00
 0.000000000000000000e+00
 0.000000000000000000e+00
 0.000000000000000000e+00
 0.000000000000000000e+00
 0.000000000000000000e+00
 0.000000000000000000e+00
 0.000000000000000000e+00
 0.000000000000000000e+00
 0.000000000000000000e+00
 0.000000000000000000e+00
 0.000000000000000000e+00
 0.000000000000000000e+00
 0.000000000000000000e+00
 0.000000000000000000e+00
 0.000000000000000000e+00
 0.000000000000000000e+00
 0.000000000000000000e+00
 </DataArray>
 <DataArray Name="volume" type="Float32" NumberOfComponents="1" format="ascii">
 2.369877780420775554e-05
 2.385339980763309615e-05
 2.400852458609602962e-05
 2.416415213964316646e-05
 2.432028246818793992e-05
 2.447691557183085553e-05
 2.463405145045047926e-05
 2.479169010415507886e-05
 2.494983153289717645e-05
 2.510847573669053800e-05
 2.526762271551435021e-05
 2.542727246938941623e-05
 2.558742499831586479e-05
 2.574808030227249635e-05
 2.590923838128766620e-05
 2.607089923533284287e-05
 2.623306286442949356e-05
 2.639572926857045916e-05
 2.655889844776308513e-05
 2.672257040199274491e-05
 2.688674513125186263e-05
 2.705142263558499901e-05
 </DataArray>
 <DataArray Name="rho" type="Float32" NumberOfComponents="1" format="ascii">
 1.528855304762397147e-04
 1.528855304762397147e-04
 1.528855304762397147e-04
 1.528855304762397147e-04
 1.528855304762397147e-04
 1.528855304762397147e-04
 1.528855304762397147e-04
 1.528855304762397147e-04
 1.528855304762397147e-04
 1.528855304762397147e-04
 1.528855304762397147e-04
 1.528855304762397147e-04
 1.528855304762397147e-04
 1.528855304762397147e-04
 1.528855304762397147e-04
 1.528855304762397147e-04
 1.528855304762397147e-04
 1.528855304762397147e-04
 1.528855304762397147e-04
 1.528855304762397147e-04
 1.528855304762397147e-04
 1.528855304762397147e-04
 </DataArray>
 <DataArray Name="vel.x" type="Float32" NumberOfComponents="1" format="ascii">
 -4.512716235012330270e-13
 -3.179749304766387110e-13
 -4.459879368448843397e-15
 -4.496995314386147453e-15
 2.119023545646902423e-13
 3.274961765154954336e-13
 5.218668279888461554e-13
 6.553847818538980027e-13
 5.750969757250627968e-13
 6.562981234183706584e-13
 8.001486509977662238e-13
 6.070619512872225377e-13
 2.885159728416452264e-13
 -1.358417426338897803e-13
 -6.561445728035268810e-13
 -9.686757160170744408e-13
 -9.061111846871604546e-13
 -6.736149340213519299e-13
 -5.787180187010803742e-13
 -5.530145971101693175e-13
 -4.174484289108764157e-13
 3.860161235729609493e-14
 </DataArray>
 <DataArray Name="vel.y" type="Float32" NumberOfComponents="1" format="ascii">
 2.766205263426103291e-11
 -2.859825584695015579e-11
 3.276275746133283865e-11
 -1.900872527132863885e-11
 1.286831681041989644e-11
 -1.104705211906867747e-11
 1.165298319802487659e-11
 1.570434271311660706e-11
 -8.966184368770204903e-12
 -5.662892777564729936e-12
 3.721532712378049493e-11
 1.265813402826418981e-11
 1.527097605677274378e-11
 1.103266127405583340e-11
 -3.383868114198226678e-11
 -3.739028396489878657e-11
 -1.443659254408409619e-11
 8.069436950234612991e-12
 9.443850749903331366e-12
 -1.449597780206136452e-11
 -4.193524935525373294e-11
 2.969294854515245724e-11
 </DataArray>
 <DataArray Name="vel.z" type="Float32" NumberOfComponents="1" format="ascii">
 0.000000000000000000e+00
 0.000000000000000000e+00
 0.000000000000000000e+00
 0.000000000000000000e+00
 0.000000000000000000e+00
 0.000000000000000000e+00
 0.000000000000000000e+00
 0.000000000000000000e+00
 0.000000000000000000e+00
 0.000000000000000000e+00
 0.000000000000000000e+00
 0.000000000000000000e+00
 0.000000000000000000e+00
 0.000000000000000000e+00
 0.000000000000000000e+00
 0.000000000000000000e+00
 0.000000000000000000e+00
 0.000000000000000000e+00
 0.000000000000000000e+00
 0.000000000000000000e+00
 0.000000000000000000e+00
 0.000000000000000000e+00
 </DataArray>
 <DataArray Name="p" type="Float32" NumberOfComponents="1" format="ascii">
 1.319999999999999929e+01
 1.319999999999999929e+01
 1.319999999999999929e+01
 1.319999999999999929e+01
 1.319999999999999929e+01
 1.319999999999999929e+01
 1.319999999999999929e+01
 1.319999999999999929e+01
 1.319999999999999929e+01
 1.319999999999999929e+01
 1.319999999999999929e+01
 1.319999999999999929e+01
 1.319999999999999929e+01
 1.319999999999999929e+01
 1.319999999999999929e+01
 1.319999999999999929e+01
 1.319999999999999929e+01
 1.319999999999999929e+01
 1.319999999999999929e+01
 1.319999999999999929e+01
 1.319999999999999929e+01
 1.319999999999999929e+01
 </DataArray>
 <DataArray Name="a" type="Float32" NumberOfComponents="1" format="ascii">
 3.474749704973453390e+02
 3.474749704973453390e+02
 3.474749704973453390e+02
 3.474749704973453390e+02
 3.474749704973453390e+02
 3.474749704973453390e+02
 3.474749704973453390e+02
 3.474749704973453390e+02
 3.474749704973453390e+02
 3.474749704973453390e+02
 3.474749704973453390e+02
 3.474749704973453390e+02
 3.474749704973453390e+02
 3.474749704973453390e+02
 3.474749704973453390e+02
 3.474749704973453390e+02
 3.474749704973453390e+02
 3.474749704973453390e+02
 3.474749704973453390e+02
 3.474749704973453390e+02
 3.474749704973453390e+02
 3.474749704973453390e+02
 </DataArray>
 <DataArray Name="mu" type="Float32" NumberOfComponents="1" format="ascii">
 1.853126952258717352e-05
 1.853126952258717352e-05
 1.853126952258717352e-05
 1.853126952258717352e-05
 1.853126952258717352e-05
 1.853126952258717352e-05
 1.853126952258717352e-05
 1.853126952258717352e-05
 1.853126952258717352e-05
 1.853126952258717352e-05
 1.853126952258717352e-05
 1.853126952258717352e-05
 1.853126952258717352e-05
 1.853126952258717352e-05
 1.853126952258717352e-05
 1.853126952258717352e-05
 1.853126952258717352e-05
 1.853126952258717352e-05
 1.853126952258717352e-05
 1.853126952258717352e-05
 1.853126952258717352e-05
 1.853126952258717352e-05
 </DataArray>
 <DataArray Name="k" type="Float32" NumberOfComponents="1" format="ascii">
 2.626199291280435430e-02
 2.626199291280435430e-02
 2.626199291280435430e-02
 2.626199291280435430e-02
 2.626199291280435430e-02
 2.626199291280435430e-02
 2.626199291280435430e-02
 2.626199291280435430e-02
 2.626199291280435430e-02
 2.626199291280435430e-02
 2.626199291280435430e-02
 2.626199291280435430e-02
 2.626199291280435430e-02
 2.626199291280435430e-02
 2.626199291280435430e-02
 2.626199291280435430e-02
 2.626199291280435430e-02
 2.626199291280435430e-02
 2.626199291280435430e-02
 2.626199291280435430e-02
 2.626199291280435430e-02
 2.626199291280435430e-02
 </DataArray>
 <DataArray Name="mu_t" type="Float32" NumberOfComponents="1" format="ascii">
 0.000000000000000000e+00
 0.000000000000000000e+00
 0.000000000000000000e+00
 0.000000000000000000e+00
 0.000000000000000000e+00
 0.000000000000000000e+00
 0.000000000000000000e+00
 0.000000000000000000e+00
 0.000000000000000000e+00
 0.000000000000000000e+00
 0.000000000000000000e+00
 0.000000000000000000e+00
 0.000000000000000000e+00
 0.000000000000000000e+00
 0.000000000000000000e+00
 0.000000000000000000e+00
 0.000000000000000000e+00
 0.000000000000000000e+00
 0.000000000000000000e+00
 0.000000000000000000e+00
 0.000000000000000000e+00
 0.000000000000000000e+00
 </DataArray>
 <DataArray Name="k_t" type="Float32" NumberOfComponents="1" format="ascii">
 0.000000000000000000e+00
 0.000000000000000000e+00
 0.000000000000000000e+00
 0.000000000000000000e+00
 0.000000000000000000e+00
 0.000000000000000000e+00
 0.000000000000000000e+00
 0.000000000000000000e+00
 0.000000000000000000e+00
 0.000000000000000000e+00
 0.000000000000000000e+00
 0.000000000000000000e+00
 0.000000000000000000e+00
 0.000000000000000000e+00
 0.000000000000000000e+00
 0.000000000000000000e+00
 0.000000000000000000e+00
 0.000000000000000000e+00
 0.000000000000000000e+00
 0.000000000000000000e+00
 0.000000000000000000e+00
 0.000000000000000000e+00
 </DataArray>
 <DataArray Name="S" type="Float32" NumberOfComponents="1" format="ascii">
 0.000000000000000000e+00
 0.000000000000000000e+00
 0.000000000000000000e+00
 0.000000000000000000e+00
 0.000000000000000000e+00
 0.000000000000000000e+00
 0.000000000000000000e+00
 0.000000000000000000e+00
 0.000000000000000000e+00
 0.000000000000000000e+00
 0.000000000000000000e+00
 0.000000000000000000e+00
 0.000000000000000000e+00
 0.000000000000000000e+00
 0.000000000000000000e+00
 0.000000000000000000e+00
 0.000000000000000000e+00
 0.000000000000000000e+00
 0.000000000000000000e+00
 0.000000000000000000e+00
 0.000000000000000000e+00
 0.000000000000000000e+00
 </DataArray>
 <DataArray Name="massf[0]-Ar" type="Float32" NumberOfComponents="1" format="ascii">
 0.000000000000000000e+00
 0.000000000000000000e+00
 0.000000000000000000e+00
 0.000000000000000000e+00
 0.000000000000000000e+00
 0.000000000000000000e+00
 0.000000000000000000e+00
 0.000000000000000000e+00
 0.000000000000000000e+00
 0.000000000000000000e+00
 0.000000000000000000e+00
 0.000000000000000000e+00
 0.000000000000000000e+00
 0.000000000000000000e+00
 0.000000000000000000e+00
 0.000000000000000000e+00
 0.000000000000000000e+00
 0.000000000000000000e+00
 0.000000000000000000e+00
 0.000000000000000000e+00
 0.000000000000000000e+00
 0.000000000000000000e+00
 </DataArray>
 <DataArray Name="massf[1]-He" type="Float32" NumberOfComponents="1" format="ascii">
 0.000000000000000000e+00
 0.000000000000000000e+00
 0.000000000000000000e+00
 0.000000000000000000e+00
 0.000000000000000000e+00
 0.000000000000000000e+00
 0.000000000000000000e+00
 0.000000000000000000e+00
 0.000000000000000000e+00
 0.000000000000000000e+00
 0.000000000000000000e+00
 0.000000000000000000e+00
 0.000000000000000000e+00
 0.000000000000000000e+00
 0.000000000000000000e+00
 0.000000000000000000e+00
 0.000000000000000000e+00
 0.000000000000000000e+00
 0.000000000000000000e+00
 0.000000000000000000e+00
 0.000000000000000000e+00
 0.000000000000000000e+00
 </DataArray>
 <DataArray Name="massf[2]-N" type="Float32" NumberOfComponents="1" format="ascii">
 0.000000000000000000e+00
 0.000000000000000000e+00
 0.000000000000000000e+00
 0.000000000000000000e+00
 0.000000000000000000e+00
 0.000000000000000000e+00
 0.000000000000000000e+00
 0.000000000000000000e+00
 0.000000000000000000e+00
 0.000000000000000000e+00
 0.000000000000000000e+00
 0.000000000000000000e+00
 0.000000000000000000e+00
 0.000000000000000000e+00
 0.000000000000000000e+00
 0.000000000000000000e+00
 0.000000000000000000e+00
 0.000000000000000000e+00
 0.000000000000000000e+00
 0.000000000000000000e+00
 0.000000000000000000e+00
 0.000000000000000000e+00
 </DataArray>
 <DataArray Name="massf[3]-N2" type="Float32" NumberOfComponents="1" format="ascii">
 7.563277885211407980e-01
 7.563277885211407980e-01
 7.563277885211407980e-01
 7.563277885211407980e-01
 7.563277885211407980e-01
 7.563277885211407980e-01
 7.563277885211407980e-01
 7.563277885211407980e-01
 7.563277885211407980e-01
 7.563277885211407980e-01
 7.563277885211407980e-01
 7.563277885211407980e-01
 7.563277885211407980e-01
 7.563277885211407980e-01
 7.563277885211407980e-01
 7.563277885211407980e-01
 7.563277885211407980e-01
 7.563277885211407980e-01
 7.563277885211407980e-01
 7.563277885211407980e-01
 7.563277885211407980e-01
 7.563277885211407980e-01
 </DataArray>
 <DataArray Name="massf[4]-NO" type="Float32" NumberOfComponents="1" format="ascii">
 0.000000000000000000e+00
 0.000000000000000000e+00
 0.000000000000000000e+00
 0.000000000000000000e+00
 0.000000000000000000e+00
 0.000000000000000000e+00
 0.000000000000000000e+00
 0.000000000000000000e+00
 0.000000000000000000e+00
 0.000000000000000000e+00
 0.000000000000000000e+00
 0.000000000000000000e+00
 0.000000000000000000e+00
 0.000000000000000000e+00
 0.000000000000000000e+00
 0.000000000000000000e+00
 0.000000000000000000e+00
 0.000000000000000000e+00
 0.000000000000000000e+00
 0.000000000000000000e+00
 0.000000000000000000e+00
 0.000000000000000000e+00
 </DataArray>
 <DataArray Name="massf[5]-O" type="Float32" NumberOfComponents="1" format="ascii">
 0.000000000000000000e+00
 0.000000000000000000e+00
 0.000000000000000000e+00
 0.000000000000000000e+00
 0.000000000000000000e+00
 0.000000000000000000e+00
 0.000000000000000000e+00
 0.000000000000000000e+00
 0.000000000000000000e+00
 0.000000000000000000e+00
 0.000000000000000000e+00
 0.000000000000000000e+00
 0.000000000000000000e+00
 0.000000000000000000e+00
 0.000000000000000000e+00
 0.000000000000000000e+00
 0.000000000000000000e+00
 0.000000000000000000e+00
 0.000000000000000000e+00
 0.000000000000000000e+00
 0.000000000000000000e+00
 0.000000000000000000e+00
 </DataArray>
 <DataArray Name="massf[6]-O2" type="Float32" NumberOfComponents="1" format="ascii">
 2.436722114788592020e-01
 2.436722114788592020e-01
 2.436722114788592020e-01
 2.436722114788592020e-01
 2.436722114788592020e-01
 2.436722114788592020e-01
 2.436722114788592020e-01
 2.436722114788592020e-01
 2.436722114788592020e-01
 2.436722114788592020e-01
 2.436722114788592020e-01
 2.436722114788592020e-01
 2.436722114788592020e-01
 2.436722114788592020e-01
 2.436722114788592020e-01
 2.436722114788592020e-01
 2.436722114788592020e-01
 2.436722114788592020e-01
 2.436722114788592020e-01
 2.436722114788592020e-01
 2.436722114788592020e-01
 2.436722114788592020e-01
 </DataArray>
 <DataArray Name="dt_chem" type="Float32" NumberOfComponents="1" format="ascii">
 -1.000000000000000000e+00
 -1.000000000000000000e+00
 -1.000000000000000000e+00
 -1.000000000000000000e+00
 -1.000000000000000000e+00
 -1.000000000000000000e+00
 -1.000000000000000000e+00
 -1.000000000000000000e+00
 -1.000000000000000000e+00
 -1.000000000000000000e+00
 -1.000000000000000000e+00
 -1.000000000000000000e+00
 -1.000000000000000000e+00
 -1.000000000000000000e+00
 -1.000000000000000000e+00
 -1.000000000000000000e+00
 -1.000000000000000000e+00
 -1.000000000000000000e+00
 -1.000000000000000000e+00
 -1.000000000000000000e+00
 -1.000000000000000000e+00
 -1.000000000000000000e+00
 </DataArray>
 <DataArray Name="u" type="Float32" NumberOfComponents="1" format="ascii">
 -8.447044764501467580e+04
 -8.447044764501467580e+04
 -8.447044764501467580e+04
 -8.447044764501467580e+04
 -8.447044764501467580e+04
 -8.447044764501467580e+04
 -8.447044764501467580e+04
 -8.447044764501467580e+04
 -8.447044764501467580e+04
 -8.447044764501467580e+04
 -8.447044764501467580e+04
 -8.447044764501467580e+04
 -8.447044764501467580e+04
 -8.447044764501467580e+04
 -8.447044764501467580e+04
 -8.447044764501467580e+04
 -8.447044764501467580e+04
 -8.447044764501467580e+04
 -8.447044764501467580e+04
 -8.447044764501467580e+04
 -8.447044764501467580e+04
 -8.447044764501467580e+04
 </DataArray>
 <DataArray Name="T" type="Float32" NumberOfComponents="1" format="ascii">
 3.000000000000000000e+02
 3.000000000000000000e+02
 3.000000000000000000e+02
 3.000000000000000000e+02
 3.000000000000000000e+02
 3.000000000000000000e+02
 3.000000000000000000e+02
 3.000000000000000000e+02
 3.000000000000000000e+02
 3.000000000000000000e+02
 3.000000000000000000e+02
 3.000000000000000000e+02
 3.000000000000000000e+02
 3.000000000000000000e+02
 3.000000000000000000e+02
 3.000000000000000000e+02
 3.000000000000000000e+02
 3.000000000000000000e+02
 3.000000000000000000e+02
 3.000000000000000000e+02
 3.000000000000000000e+02
 3.000000000000000000e+02
 </DataArray>
 <DataArray Name="vel.vector" type="Float32" NumberOfComponents="3" format="ascii">
 -4.512716155619100888e-13 2.766205320359205189e-11 0.000000000000000000e+00
 -3.179749215667659890e-13 -2.859825570800111905e-11 0.000000000000000000e+00
 -4.459879189046278558e-15 3.276275778452131249e-11 0.000000000000000000e+00
 -4.496995325762014745e-15 -1.900872514948304115e-11 0.000000000000000000e+00
 2.119023543873527204e-13 1.286831665531229518e-11 0.000000000000000000e+00
 3.274961682050991918e-13 -1.104705216192769512e-11 0.000000000000000000e+00
 5.218668379380897449e-13 1.165298326583075195e-11 0.000000000000000000e+00
 6.553847633865295119e-13 1.570434234043904809e-11 0.000000000000000000e+00
 5.750969904287639434e-13 -8.966184565639689907e-12 0.000000000000000000e+00
 6.562981495067399251e-13 -5.662892897662086256e-12 0.000000000000000000e+00
 8.001486300791837980e-13 3.721532804146221451e-11 0.000000000000000000e+00
 6.070619267689592036e-13 1.265813408951599328e-11 0.000000000000000000e+00
 2.885159830229994116e-13 1.527097545639399812e-11 0.000000000000000000e+00
 -1.358417366223094169e-13 1.103266089597099153e-11 0.000000000000000000e+00
 -6.561445722690073534e-13 -3.383868185657945560e-11 0.000000000000000000e+00
 -9.686757689378322489e-13 -3.739028531235533137e-11 0.000000000000000000e+00
 -9.061111778431441000e-13 -1.443659254640738965e-11 0.000000000000000000e+00
 -6.736149181854611534e-13 8.069436611968239248e-12 0.000000000000000000e+00
 -5.787180088444310311e-13 9.443851083090759602e-12 0.000000000000000000e+00
 -5.530146111008826804e-13 -1.449597820252224167e-11 0.000000000000000000e+00
 -4.174484380132376105e-13 -4.193525041107371010e-11 0.000000000000000000e+00
 3.860161227665394323e-14 2.969294948806933121e-11 0.000000000000000000e+00
 </DataArray>
</CellData>
</Piece>
</UnstructuredGrid>
</VTKFile>
