<VTKFile type="UnstructuredGrid" byte_order="BigEndian">
<UnstructuredGrid><Piece NumberOfPoints="10" NumberOfCells="4">
<Points>
 <DataArray type="Float32" NumberOfComponents="3" format="ascii">
 8.574999809265136719e+00 0.000000000000000000e+00 0.000000000000000000e+00
 8.580855369567871094e+00 0.000000000000000000e+00 0.000000000000000000e+00
 8.586710929870605469e+00 0.000000000000000000e+00 0.000000000000000000e+00
 8.592566490173339844e+00 0.000000000000000000e+00 0.000000000000000000e+00
 8.598422050476074219e+00 0.000000000000000000e+00 0.000000000000000000e+00
 8.574999809265136719e+00 4.250000044703483582e-02 0.000000000000000000e+00
 8.580855369567871094e+00 4.274500161409378052e-02 0.000000000000000000e+00
 8.586710929870605469e+00 4.298999905586242676e-02 0.000000000000000000e+00
 8.592566490173339844e+00 4.323500022292137146e-02 0.000000000000000000e+00
 8.598422050476074219e+00 4.348000138998031616e-02 0.000000000000000000e+00
 </DataArray>
</Points>
<Cells>
 <DataArray type="Int32" Name="connectivity" format="ascii">
 0 1 6 5
 1 2 7 6
 2 3 8 7
 3 4 9 8
 </DataArray>
 <DataArray type="Int32" Name="offsets" format="ascii">
 4
 8
 12
 16
 </DataArray>
 <DataArray type="UInt8" Name="types" format="ascii">
 9
 9
 9
 9
 </DataArray>
</Cells>
<CellData>
 <DataArray Name="pos.x" type="Float32" NumberOfComponents="1" format="ascii">
 8.577930554851674216e+00
 8.583786038820736763e+00
 8.589641522973359145e+00
 8.595497007303842807e+00
 </DataArray>
 <DataArray Name="pos.y" type="Float32" NumberOfComponents="1" format="ascii">
 2.131130867890463146e-02
 2.143380834353827633e-02
 2.155630801198660240e-02
 2.167880768417537393e-02
 </DataArray>
 <DataArray Name="pos.z" type="Float32" NumberOfComponents="1" format="ascii">
 0.000000000000000000e+00
 0.000000000000000000e+00
 0.000000000000000000e+00
 0.000000000000000000e+00
 </DataArray>
 <DataArray Name="volume" type="Float32" NumberOfComponents="1" format="ascii">
 5.318792213772123290e-06
 5.380114083911243875e-06
 5.441787430436255499e-06
 5.503812253347094635e-06
 </DataArray>
 <DataArray Name="rho" type="Float32" NumberOfComponents="1" format="ascii">
 5.775140888238352232e-04
 5.775140888238352232e-04
 5.775140888238352232e-04
 5.775140888238352232e-04
 </DataArray>
 <DataArray Name="vel.x" type="Float32" NumberOfComponents="1" format="ascii">
 7.888272891195099122e-13
 6.471399193142316499e-13
 3.282898842739415326e-13
 4.831172232152790472e-13
 </DataArray>
 <DataArray Name="vel.y" type="Float32" NumberOfComponents="1" format="ascii">
 1.493865407780179149e-11
 1.060956060157187846e-11
 -2.831916549538420800e-11
 8.554906055391755980e-12
 </DataArray>
 <DataArray Name="vel.z" type="Float32" NumberOfComponents="1" format="ascii">
 0.000000000000000000e+00
 0.000000000000000000e+00
 0.000000000000000000e+00
 0.000000000000000000e+00
 </DataArray>
 <DataArray Name="p" type="Float32" NumberOfComponents="1" format="ascii">
 4.999999999999998579e+01
 4.999999999999998579e+01
 4.999999999999998579e+01
 4.999999999999998579e+01
 </DataArray>
 <DataArray Name="a" type="Float32" NumberOfComponents="1" format="ascii">
 3.479677708626071535e+02
 3.479677708626071535e+02
 3.479677708626071535e+02
 3.479677708626071535e+02
 </DataArray>
 <DataArray Name="mu" type="Float32" NumberOfComponents="1" format="ascii">
 1.847444588311345095e-05
 1.847444588311345095e-05
 1.847444588311345095e-05
 1.847444588311345095e-05
 </DataArray>
 <DataArray Name="k" type="Float32" NumberOfComponents="1" format="ascii">
 2.625219405453244753e-02
 2.625219405453244753e-02
 2.625219405453244753e-02
 2.625219405453244753e-02
 </DataArray>
 <DataArray Name="mu_t" type="Float32" NumberOfComponents="1" format="ascii">
 0.000000000000000000e+00
 0.000000000000000000e+00
 0.000000000000000000e+00
 0.000000000000000000e+00
 </DataArray>
 <DataArray Name="k_t" type="Float32" NumberOfComponents="1" format="ascii">
 0.000000000000000000e+00
 0.000000000000000000e+00
 0.000000000000000000e+00
 0.000000000000000000e+00
 </DataArray>
 <DataArray Name="S" type="Float32" NumberOfComponents="1" format="ascii">
 0.000000000000000000e+00
 0.000000000000000000e+00
 0.000000000000000000e+00
 0.000000000000000000e+00
 </DataArray>
 <DataArray Name="massf[0]-Ar" type="Float32" NumberOfComponents="1" format="ascii">
 0.000000000000000000e+00
 0.000000000000000000e+00
 0.000000000000000000e+00
 0.000000000000000000e+00
 </DataArray>
 <DataArray Name="massf[1]-He" type="Float32" NumberOfComponents="1" format="ascii">
 0.000000000000000000e+00
 0.000000000000000000e+00
 0.000000000000000000e+00
 0.000000000000000000e+00
 </DataArray>
 <DataArray Name="massf[2]-N" type="Float32" NumberOfComponents="1" format="ascii">
 0.000000000000000000e+00
 0.000000000000000000e+00
 0.000000000000000000e+00
 0.000000000000000000e+00
 </DataArray>
 <DataArray Name="massf[3]-N2" type="Float32" NumberOfComponents="1" format="ascii">
 7.778669428624583881e-01
 7.778669428624583881e-01
 7.778669428624583881e-01
 7.778669428624583881e-01
 </DataArray>
 <DataArray Name="massf[4]-NO" type="Float32" NumberOfComponents="1" format="ascii">
 0.000000000000000000e+00
 0.000000000000000000e+00
 0.000000000000000000e+00
 0.000000000000000000e+00
 </DataArray>
 <DataArray Name="massf[5]-O" type="Float32" NumberOfComponents="1" format="ascii">
 0.000000000000000000e+00
 0.000000000000000000e+00
 0.000000000000000000e+00
 0.000000000000000000e+00
 </DataArray>
 <DataArray Name="massf[6]-O2" type="Float32" NumberOfComponents="1" format="ascii">
 2.221330571375415841e-01
 2.221330571375415841e-01
 2.221330571375415841e-01
 2.221330571375415841e-01
 </DataArray>
 <DataArray Name="dt_chem" type="Float32" NumberOfComponents="1" format="ascii">
 -1.000000000000000000e+00
 -1.000000000000000000e+00
 -1.000000000000000000e+00
 -1.000000000000000000e+00
 </DataArray>
 <DataArray Name="u" type="Float32" NumberOfComponents="1" format="ascii">
 -8.470447781759938516e+04
 -8.470447781759938516e+04
 -8.470447781759938516e+04
 -8.470447781759938516e+04
 </DataArray>
 <DataArray Name="T" type="Float32" NumberOfComponents="1" format="ascii">
 3.000000000000000000e+02
 3.000000000000000000e+02
 3.000000000000000000e+02
 3.000000000000000000e+02
 </DataArray>
 <DataArray Name="vel.vector" type="Float32" NumberOfComponents="3" format="ascii">
 7.888272825738729122e-13 1.493865448010112118e-11 0.000000000000000000e+00
 6.471398937557548692e-13 1.060956097281851029e-11 0.000000000000000000e+00
 3.282898855105215175e-13 -2.831916472156859044e-11 0.000000000000000000e+00
 4.831172354530233193e-13 8.554905915614252621e-12 0.000000000000000000e+00
 </DataArray>
</CellData>
</Piece>
</UnstructuredGrid>
</VTKFile>
