<VTKFile type="UnstructuredGrid" byte_order="BigEndian">
<UnstructuredGrid><Piece NumberOfPoints="34" NumberOfCells="16">
<Points>
 <DataArray type="Float32" NumberOfComponents="3" format="ascii">
 -2.132372856140136719e-01 0.000000000000000000e+00 0.000000000000000000e+00
 -2.069099545478820801e-01 0.000000000000000000e+00 0.000000000000000000e+00
 -2.005826234817504883e-01 0.000000000000000000e+00 0.000000000000000000e+00
 -1.942552924156188965e-01 0.000000000000000000e+00 0.000000000000000000e+00
 -1.879279613494873047e-01 0.000000000000000000e+00 0.000000000000000000e+00
 -1.816006302833557129e-01 0.000000000000000000e+00 0.000000000000000000e+00
 -1.752732992172241211e-01 0.000000000000000000e+00 0.000000000000000000e+00
 -1.689459681510925293e-01 0.000000000000000000e+00 0.000000000000000000e+00
 -1.626186370849609375e-01 0.000000000000000000e+00 0.000000000000000000e+00
 -1.562913209199905396e-01 0.000000000000000000e+00 0.000000000000000000e+00
 -1.499639898538589478e-01 0.000000000000000000e+00 0.000000000000000000e+00
 -1.436366587877273560e-01 0.000000000000000000e+00 0.000000000000000000e+00
 -1.373093277215957642e-01 0.000000000000000000e+00 0.000000000000000000e+00
 -1.309819966554641724e-01 0.000000000000000000e+00 0.000000000000000000e+00
 -1.246546581387519836e-01 0.000000000000000000e+00 0.000000000000000000e+00
 -1.183273270726203918e-01 0.000000000000000000e+00 0.000000000000000000e+00
 -1.120000034570693970e-01 0.000000000000000000e+00 0.000000000000000000e+00
 -2.132372856140136719e-01 1.283999979496002197e-01 0.000000000000000000e+00
 -2.069099545478820801e-01 1.283999979496002197e-01 0.000000000000000000e+00
 -2.005826234817504883e-01 1.283999979496002197e-01 0.000000000000000000e+00
 -1.942552924156188965e-01 1.283999979496002197e-01 0.000000000000000000e+00
 -1.879279613494873047e-01 1.283999979496002197e-01 0.000000000000000000e+00
 -1.816006302833557129e-01 1.283999979496002197e-01 0.000000000000000000e+00
 -1.752732992172241211e-01 1.283999979496002197e-01 0.000000000000000000e+00
 -1.689459681510925293e-01 1.283999979496002197e-01 0.000000000000000000e+00
 -1.626186370849609375e-01 1.283999979496002197e-01 0.000000000000000000e+00
 -1.562913209199905396e-01 1.283999979496002197e-01 0.000000000000000000e+00
 -1.499639898538589478e-01 1.283999979496002197e-01 0.000000000000000000e+00
 -1.436366587877273560e-01 1.283999979496002197e-01 0.000000000000000000e+00
 -1.373093277215957642e-01 1.283999979496002197e-01 0.000000000000000000e+00
 -1.309819966554641724e-01 1.283999979496002197e-01 0.000000000000000000e+00
 -1.246546581387519836e-01 1.283999979496002197e-01 0.000000000000000000e+00
 -1.183273270726203918e-01 1.283999979496002197e-01 0.000000000000000000e+00
 -1.120000034570693970e-01 1.283999979496002197e-01 0.000000000000000000e+00
 </DataArray>
</Points>
<Cells>
 <DataArray type="Int32" Name="connectivity" format="ascii">
 0 1 18 17
 1 2 19 18
 2 3 20 19
 3 4 21 20
 4 5 22 21
 5 6 23 22
 6 7 24 23
 7 8 25 24
 8 9 26 25
 9 10 27 26
 10 11 28 27
 11 12 29 28
 12 13 30 29
 13 14 31 30
 14 15 32 31
 15 16 33 32
 </DataArray>
 <DataArray type="Int32" Name="offsets" format="ascii">
 4
 8
 12
 16
 20
 24
 28
 32
 36
 40
 44
 48
 52
 56
 60
 64
 </DataArray>
 <DataArray type="UInt8" Name="types" format="ascii">
 9
 9
 9
 9
 9
 9
 9
 9
 9
 9
 9
 9
 9
 9
 9
 9
 </DataArray>
</Cells>
<CellData>
 <DataArray Name="pos.x" type="Float32" NumberOfComponents="1" format="ascii">
 -2.100736235366919280e-01
 -2.037462929859386318e-01
 -1.974189624351842531e-01
 -1.910916318844284589e-01
 -1.847643013336754125e-01
 -1.784369707829208118e-01
 -1.721096402321664331e-01
 -1.657823096814115826e-01
 -1.594549791306581477e-01
 -1.531276485799029918e-01
 -1.468003180291494736e-01
 -1.404729874783940125e-01
 -1.341456569276404387e-01
 -1.278183263768857547e-01
 -1.214909958261317230e-01
 -1.151636652753769974e-01
 </DataArray>
 <DataArray Name="pos.y" type="Float32" NumberOfComponents="1" format="ascii">
 6.419999999999985441e-02
 6.420000000000011808e-02
 6.420000000000011808e-02
 6.419999999999985441e-02
 6.420000000000013196e-02
 6.419999999999986828e-02
 6.420000000000011808e-02
 6.419999999999984053e-02
 6.420000000000011808e-02
 6.419999999999985441e-02
 6.420000000000011808e-02
 6.419999999999985441e-02
 6.420000000000013196e-02
 6.419999999999984053e-02
 6.420000000000013196e-02
 6.419999999999997931e-02
 </DataArray>
 <DataArray Name="pos.z" type="Float32" NumberOfComponents="1" format="ascii">
 0.000000000000000000e+00
 0.000000000000000000e+00
 0.000000000000000000e+00
 0.000000000000000000e+00
 0.000000000000000000e+00
 0.000000000000000000e+00
 0.000000000000000000e+00
 0.000000000000000000e+00
 0.000000000000000000e+00
 0.000000000000000000e+00
 0.000000000000000000e+00
 0.000000000000000000e+00
 0.000000000000000000e+00
 0.000000000000000000e+00
 0.000000000000000000e+00
 0.000000000000000000e+00
 </DataArray>
 <DataArray Name="volume" type="Float32" NumberOfComponents="1" format="ascii">
 5.215795738242231790e-05
 5.215795738242231112e-05
 5.215795738242208750e-05
 5.215795738242231790e-05
 5.215795738242254829e-05
 5.215795738242277868e-05
 5.215795738242231112e-05
 5.215795738242208750e-05
 5.215795738242231112e-05
 5.215795738242231790e-05
 5.215795738242231112e-05
 5.215795738242231790e-05
 5.215795738242254829e-05
 5.215795738242208750e-05
 5.215795738242265671e-05
 5.215795738242208750e-05
 </DataArray>
 <DataArray Name="rho" type="Float32" NumberOfComponents="1" format="ascii">
 3.132558557243485531e+00
 3.132557113444234709e+00
 3.132552732037766852e+00
 3.132545502682908101e+00
 3.132535520380530958e+00
 3.132522893416511245e+00
 3.132507736596275905e+00
 3.132490164923495080e+00
 3.132470287931152786e+00
 3.132448204884122234e+00
 3.132424000986453905e+00
 3.132397744634439096e+00
 3.132369485809765930e+00
 3.132339247402822213e+00
 3.132307749281651787e+00
 3.132210614435275264e+00
 </DataArray>
 <DataArray Name="vel.x" type="Float32" NumberOfComponents="1" format="ascii">
 1.410870952808893852e+00
 4.231975911677340996e+00
 7.053094941052758138e+00
 9.874226643326778685e+00
 1.269537579099401903e+01
 1.551654703418624237e+01
 1.833774494392381982e+01
 2.115897399824166314e+01
 2.398023857131123293e+01
 2.680154292536002814e+01
 2.962289120569709411e+01
 3.244428743863607423e+01
 3.526573557168937612e+01
 3.808723603196106211e+01
 4.090909693943209646e+01
 4.370368914781482772e+01
 </DataArray>
 <DataArray Name="vel.y" type="Float32" NumberOfComponents="1" format="ascii">
 4.998319895646596090e-12
 -1.546898489815245554e-12
 -1.382754062791708456e-12
 4.989637791385222976e-12
 -1.341577845431146844e-12
 5.008217111939222626e-12
 -1.082213448255923265e-12
 5.010934031644300236e-12
 -7.889280749214238510e-13
 4.987939039201334521e-12
 -5.244269186552842418e-13
 4.840187016700876817e-12
 -4.697846979950872958e-13
 5.000785008686927687e-12
 -4.868389015211664104e-13
 1.838757937832561900e-12
 </DataArray>
 <DataArray Name="vel.z" type="Float32" NumberOfComponents="1" format="ascii">
 0.000000000000000000e+00
 0.000000000000000000e+00
 0.000000000000000000e+00
 0.000000000000000000e+00
 0.000000000000000000e+00
 0.000000000000000000e+00
 0.000000000000000000e+00
 0.000000000000000000e+00
 0.000000000000000000e+00
 0.000000000000000000e+00
 0.000000000000000000e+00
 0.000000000000000000e+00
 0.000000000000000000e+00
 0.000000000000000000e+00
 0.000000000000000000e+00
 0.000000000000000000e+00
 </DataArray>
 <DataArray Name="p" type="Float32" NumberOfComponents="1" format="ascii">
 1.355122766313707642e+07
 1.355121747963332757e+07
 1.355119070465135016e+07
 1.355114738998652436e+07
 1.355108752164890431e+07
 1.355101108247215673e+07
 1.355091805213572271e+07
 1.355080840788478032e+07
 1.355068212533142045e+07
 1.355053917931364104e+07
 1.355037954478076287e+07
 1.355020319766862318e+07
 1.355001011612417176e+07
 1.354980024679599889e+07
 1.354957662196523696e+07
 1.354906220193427429e+07
 </DataArray>
 <DataArray Name="a" type="Float32" NumberOfComponents="1" format="ascii">
 2.685122455499004445e+03
 2.685122065375952388e+03
 2.685121290491229047e+03
 2.685120097545886438e+03
 2.685118444431184798e+03
 2.685116283026868587e+03
 2.685113562102544165e+03
 2.685110230097880049e+03
 2.685106237631334352e+03
 2.685101539641187628e+03
 2.685096097098697101e+03
 2.685089878272124679e+03
 2.685082859536842989e+03
 2.685075025754375929e+03
 2.685066368785313443e+03
 2.685057030985212805e+03
 </DataArray>
 <DataArray Name="mu" type="Float32" NumberOfComponents="1" format="ascii">
 1.064223939492820554e-04
 1.064223939492820554e-04
 1.064223939492820554e-04
 1.064223939492820554e-04
 1.064223939492820554e-04
 1.064223939492820554e-04
 1.064223939492820554e-04
 1.064223939492820554e-04
 1.064223939492820554e-04
 1.064223939492820554e-04
 1.064223939492820554e-04
 1.064223939492820554e-04
 1.064223939492820554e-04
 1.064223939492820554e-04
 1.064223939492820554e-04
 1.064223939492820554e-04
 </DataArray>
 <DataArray Name="k" type="Float32" NumberOfComponents="1" format="ascii">
 8.304462020313038151e-01
 8.304462020313038151e-01
 8.304462020313038151e-01
 8.304462020313038151e-01
 8.304462020313038151e-01
 8.304462020313038151e-01
 8.304462020313038151e-01
 8.304462020313038151e-01
 8.304462020313038151e-01
 8.304462020313038151e-01
 8.304462020313038151e-01
 8.304462020313038151e-01
 8.304462020313038151e-01
 8.304462020313038151e-01
 8.304462020313038151e-01
 8.304462020313038151e-01
 </DataArray>
 <DataArray Name="mu_t" type="Float32" NumberOfComponents="1" format="ascii">
 0.000000000000000000e+00
 0.000000000000000000e+00
 0.000000000000000000e+00
 0.000000000000000000e+00
 0.000000000000000000e+00
 0.000000000000000000e+00
 0.000000000000000000e+00
 0.000000000000000000e+00
 0.000000000000000000e+00
 0.000000000000000000e+00
 0.000000000000000000e+00
 0.000000000000000000e+00
 0.000000000000000000e+00
 0.000000000000000000e+00
 0.000000000000000000e+00
 0.000000000000000000e+00
 </DataArray>
 <DataArray Name="k_t" type="Float32" NumberOfComponents="1" format="ascii">
 0.000000000000000000e+00
 0.000000000000000000e+00
 0.000000000000000000e+00
 0.000000000000000000e+00
 0.000000000000000000e+00
 0.000000000000000000e+00
 0.000000000000000000e+00
 0.000000000000000000e+00
 0.000000000000000000e+00
 0.000000000000000000e+00
 0.000000000000000000e+00
 0.000000000000000000e+00
 0.000000000000000000e+00
 0.000000000000000000e+00
 0.000000000000000000e+00
 0.000000000000000000e+00
 </DataArray>
 <DataArray Name="S" type="Float32" NumberOfComponents="1" format="ascii">
 0.000000000000000000e+00
 0.000000000000000000e+00
 0.000000000000000000e+00
 0.000000000000000000e+00
 0.000000000000000000e+00
 0.000000000000000000e+00
 0.000000000000000000e+00
 0.000000000000000000e+00
 0.000000000000000000e+00
 0.000000000000000000e+00
 0.000000000000000000e+00
 0.000000000000000000e+00
 0.000000000000000000e+00
 0.000000000000000000e+00
 0.000000000000000000e+00
 0.000000000000000000e+00
 </DataArray>
 <DataArray Name="massf[0]-Ar" type="Float32" NumberOfComponents="1" format="ascii">
 0.000000000000000000e+00
 0.000000000000000000e+00
 0.000000000000000000e+00
 0.000000000000000000e+00
 0.000000000000000000e+00
 0.000000000000000000e+00
 0.000000000000000000e+00
 0.000000000000000000e+00
 0.000000000000000000e+00
 0.000000000000000000e+00
 0.000000000000000000e+00
 0.000000000000000000e+00
 0.000000000000000000e+00
 0.000000000000000000e+00
 0.000000000000000000e+00
 0.000000000000000000e+00
 </DataArray>
 <DataArray Name="massf[1]-He" type="Float32" NumberOfComponents="1" format="ascii">
 1.000000000000000000e+00
 1.000000000000000000e+00
 9.999999999999998890e-01
 1.000000000000000000e+00
 1.000000000000000000e+00
 9.999999999999998890e-01
 1.000000000000000000e+00
 1.000000000000000000e+00
 1.000000000000000000e+00
 9.999999999999998890e-01
 1.000000000000000000e+00
 1.000000000000000000e+00
 1.000000000000000000e+00
 1.000000000000000000e+00
 1.000000000000000000e+00
 1.000000000000000000e+00
 </DataArray>
 <DataArray Name="massf[2]-N" type="Float32" NumberOfComponents="1" format="ascii">
 0.000000000000000000e+00
 0.000000000000000000e+00
 0.000000000000000000e+00
 0.000000000000000000e+00
 0.000000000000000000e+00
 0.000000000000000000e+00
 0.000000000000000000e+00
 0.000000000000000000e+00
 0.000000000000000000e+00
 0.000000000000000000e+00
 0.000000000000000000e+00
 0.000000000000000000e+00
 0.000000000000000000e+00
 0.000000000000000000e+00
 0.000000000000000000e+00
 0.000000000000000000e+00
 </DataArray>
 <DataArray Name="massf[3]-N2" type="Float32" NumberOfComponents="1" format="ascii">
 0.000000000000000000e+00
 0.000000000000000000e+00
 0.000000000000000000e+00
 0.000000000000000000e+00
 0.000000000000000000e+00
 0.000000000000000000e+00
 0.000000000000000000e+00
 0.000000000000000000e+00
 0.000000000000000000e+00
 0.000000000000000000e+00
 0.000000000000000000e+00
 0.000000000000000000e+00
 0.000000000000000000e+00
 0.000000000000000000e+00
 0.000000000000000000e+00
 0.000000000000000000e+00
 </DataArray>
 <DataArray Name="massf[4]-NO" type="Float32" NumberOfComponents="1" format="ascii">
 0.000000000000000000e+00
 0.000000000000000000e+00
 0.000000000000000000e+00
 0.000000000000000000e+00
 0.000000000000000000e+00
 0.000000000000000000e+00
 0.000000000000000000e+00
 0.000000000000000000e+00
 0.000000000000000000e+00
 0.000000000000000000e+00
 0.000000000000000000e+00
 0.000000000000000000e+00
 0.000000000000000000e+00
 0.000000000000000000e+00
 0.000000000000000000e+00
 0.000000000000000000e+00
 </DataArray>
 <DataArray Name="massf[5]-O" type="Float32" NumberOfComponents="1" format="ascii">
 0.000000000000000000e+00
 0.000000000000000000e+00
 0.000000000000000000e+00
 0.000000000000000000e+00
 0.000000000000000000e+00
 0.000000000000000000e+00
 0.000000000000000000e+00
 0.000000000000000000e+00
 0.000000000000000000e+00
 0.000000000000000000e+00
 0.000000000000000000e+00
 0.000000000000000000e+00
 0.000000000000000000e+00
 0.000000000000000000e+00
 0.000000000000000000e+00
 0.000000000000000000e+00
 </DataArray>
 <DataArray Name="massf[6]-O2" type="Float32" NumberOfComponents="1" format="ascii">
 0.000000000000000000e+00
 0.000000000000000000e+00
 0.000000000000000000e+00
 0.000000000000000000e+00
 0.000000000000000000e+00
 0.000000000000000000e+00
 0.000000000000000000e+00
 0.000000000000000000e+00
 0.000000000000000000e+00
 0.000000000000000000e+00
 0.000000000000000000e+00
 0.000000000000000000e+00
 0.000000000000000000e+00
 0.000000000000000000e+00
 0.000000000000000000e+00
 0.000000000000000000e+00
 </DataArray>
 <DataArray Name="dt_chem" type="Float32" NumberOfComponents="1" format="ascii">
 -1.000000000000000000e+00
 -1.000000000000000000e+00
 -1.000000000000000000e+00
 -1.000000000000000000e+00
 -1.000000000000000000e+00
 -1.000000000000000000e+00
 -1.000000000000000000e+00
 -1.000000000000000000e+00
 -1.000000000000000000e+00
 -1.000000000000000000e+00
 -1.000000000000000000e+00
 -1.000000000000000000e+00
 -1.000000000000000000e+00
 -1.000000000000000000e+00
 -1.000000000000000000e+00
 -1.000000000000000000e+00
 </DataArray>
 <DataArray Name="u" type="Float32" NumberOfComponents="1" format="ascii">
 4.940544569636223838e+06
 4.940542684085656889e+06
 4.940538938898075372e+06
 4.940533173134071752e+06
 4.940525183275814168e+06
 4.940514736752145924e+06
 4.940501585962035693e+06
 4.940485481712382287e+06
 4.940466185343750753e+06
 4.940443479078853503e+06
 4.940417174302911386e+06
 4.940387117673195899e+06
 4.940353195034419186e+06
 4.940315333250598051e+06
 4.940273493017475121e+06
 4.940228362392536364e+06
 </DataArray>
 <DataArray Name="T" type="Float32" NumberOfComponents="1" format="ascii">
 2.082500870307057085e+03
 2.082500265171499905e+03
 2.082499063216900595e+03
 2.082497212792477512e+03
 2.082494648582629452e+03
 2.082491295947576418e+03
 2.082487075423952319e+03
 2.082481907037452402e+03
 2.082475714194364173e+03
 2.082468427002751923e+03
 2.082459984929894290e+03
 2.082450338763034779e+03
 2.082439451865966475e+03
 2.082427300766933513e+03
 2.082413872851896485e+03
 2.082399388941267716e+03
 </DataArray>
 <DataArray Name="vel.vector" type="Float32" NumberOfComponents="3" format="ascii">
 1.410870909690856934e+00 4.998319900334502464e-12 0.000000000000000000e+00
 4.231976032257080078e+00 -1.546898460019763277e-12 0.000000000000000000e+00
 7.053094863891601562e+00 -1.382754045813061605e-12 0.000000000000000000e+00
 9.874226570129394531e+00 4.989637609337238544e-12 0.000000000000000000e+00
 1.269537544250488281e+01 -1.341577890445755372e-12 0.000000000000000000e+00
 1.551654720306396484e+01 5.008216931445819142e-12 0.000000000000000000e+00
 1.833774566650390625e+01 -1.082213420440514273e-12 0.000000000000000000e+00
 2.115897369384765625e+01 5.010933942090067816e-12 0.000000000000000000e+00
 2.398023796081542969e+01 -7.889280591658054398e-13 0.000000000000000000e+00
 2.680154228210449219e+01 4.987938881373388256e-12 0.000000000000000000e+00
 2.962289047241210938e+01 -5.244269103178711422e-13 0.000000000000000000e+00
 3.244428634643554688e+01 4.840186845073146671e-12 0.000000000000000000e+00
 3.526573562622070312e+01 -4.697846929177518227e-13 0.000000000000000000e+00
 3.808723449707031250e+01 5.000784942393865506e-12 0.000000000000000000e+00
 4.090909576416015625e+01 -4.868389220404056861e-13 0.000000000000000000e+00
 4.370368957519531250e+01 1.838757878597219175e-12 0.000000000000000000e+00
 </DataArray>
</CellData>
</Piece>
</UnstructuredGrid>
</VTKFile>
