<VTKFile type="UnstructuredGrid" byte_order="BigEndian">
<UnstructuredGrid><Piece NumberOfPoints="24" NumberOfCells="11">
<Points>
 <DataArray type="Float32" NumberOfComponents="3" format="ascii">
 -2.132372856140136719e-01 0.000000000000000000e+00 0.000000000000000000e+00
 -2.040338963270187378e-01 0.000000000000000000e+00 0.000000000000000000e+00
 -1.948305070400238037e-01 0.000000000000000000e+00 0.000000000000000000e+00
 -1.856271177530288696e-01 0.000000000000000000e+00 0.000000000000000000e+00
 -1.764237284660339355e-01 0.000000000000000000e+00 0.000000000000000000e+00
 -1.672203391790390015e-01 0.000000000000000000e+00 0.000000000000000000e+00
 -1.580169498920440674e-01 0.000000000000000000e+00 0.000000000000000000e+00
 -1.488135606050491333e-01 0.000000000000000000e+00 0.000000000000000000e+00
 -1.396101713180541992e-01 0.000000000000000000e+00 0.000000000000000000e+00
 -1.304067820310592651e-01 0.000000000000000000e+00 0.000000000000000000e+00
 -1.212033927440643311e-01 0.000000000000000000e+00 0.000000000000000000e+00
 -1.120000034570693970e-01 0.000000000000000000e+00 0.000000000000000000e+00
 -2.132372856140136719e-01 1.283999979496002197e-01 0.000000000000000000e+00
 -2.040338963270187378e-01 1.283999979496002197e-01 0.000000000000000000e+00
 -1.948305070400238037e-01 1.283999979496002197e-01 0.000000000000000000e+00
 -1.856271177530288696e-01 1.283999979496002197e-01 0.000000000000000000e+00
 -1.764237284660339355e-01 1.283999979496002197e-01 0.000000000000000000e+00
 -1.672203391790390015e-01 1.283999979496002197e-01 0.000000000000000000e+00
 -1.580169498920440674e-01 1.283999979496002197e-01 0.000000000000000000e+00
 -1.488135606050491333e-01 1.283999979496002197e-01 0.000000000000000000e+00
 -1.396101713180541992e-01 1.283999979496002197e-01 0.000000000000000000e+00
 -1.304067820310592651e-01 1.283999979496002197e-01 0.000000000000000000e+00
 -1.212033927440643311e-01 1.283999979496002197e-01 0.000000000000000000e+00
 -1.120000034570693970e-01 1.283999979496002197e-01 0.000000000000000000e+00
 </DataArray>
</Points>
<Cells>
 <DataArray type="Int32" Name="connectivity" format="ascii">
 0 1 13 12
 1 2 14 13
 2 3 15 14
 3 4 16 15
 4 5 17 16
 5 6 18 17
 6 7 19 18
 7 8 20 19
 8 9 21 20
 9 10 22 21
 10 11 23 22
 </DataArray>
 <DataArray type="Int32" Name="offsets" format="ascii">
 4
 8
 12
 16
 20
 24
 28
 32
 36
 40
 44
 </DataArray>
 <DataArray type="UInt8" Name="types" format="ascii">
 9
 9
 9
 9
 9
 9
 9
 9
 9
 9
 9
 </DataArray>
</Cells>
<CellData>
 <DataArray Name="pos.x" type="Float32" NumberOfComponents="1" format="ascii">
 -2.086355938660664766e-01
 -1.994322039740600294e-01
 -1.902288140820538043e-01
 -1.810254241900478567e-01
 -1.718220342980409376e-01
 -1.626186444060347125e-01
 -1.534152545140285151e-01
 -1.442118646220223177e-01
 -1.350084747300154819e-01
 -1.258050848380097009e-01
 -1.166016949460031288e-01
 </DataArray>
 <DataArray Name="pos.y" type="Float32" NumberOfComponents="1" format="ascii">
 6.420000000000000706e-02
 6.420000000000000706e-02
 6.420000000000000706e-02
 6.420000000000000706e-02
 6.420000000000000706e-02
 6.420000000000000706e-02
 6.420000000000000706e-02
 6.420000000000000706e-02
 6.419999999999981277e-02
 6.420000000000009033e-02
 6.419999999999999318e-02
 </DataArray>
 <DataArray Name="pos.z" type="Float32" NumberOfComponents="1" format="ascii">
 0.000000000000000000e+00
 0.000000000000000000e+00
 0.000000000000000000e+00
 0.000000000000000000e+00
 0.000000000000000000e+00
 0.000000000000000000e+00
 0.000000000000000000e+00
 0.000000000000000000e+00
 0.000000000000000000e+00
 0.000000000000000000e+00
 0.000000000000000000e+00
 </DataArray>
 <DataArray Name="volume" type="Float32" NumberOfComponents="1" format="ascii">
 1.181715262133613276e-03
 1.181715262133613276e-03
 1.181715262133613276e-03
 1.181715262133613276e-03
 1.181715262133609806e-03
 1.181715262133613276e-03
 1.181715262133613276e-03
 1.181715262133613276e-03
 1.181715262133616745e-03
 1.181715262133611541e-03
 1.181715262133611541e-03
 </DataArray>
 <DataArray Name="rho" type="Float32" NumberOfComponents="1" format="ascii">
 8.707668882471725907e-03
 8.707668882471725907e-03
 8.707668882471725907e-03
 8.707668882471725907e-03
 8.707668882471725907e-03
 8.707668882471725907e-03
 8.707668882471725907e-03
 8.707668882471725907e-03
 8.707668882471725907e-03
 8.707668882471725907e-03
 8.707668882471725907e-03
 </DataArray>
 <DataArray Name="vel.x" type="Float32" NumberOfComponents="1" format="ascii">
 0.000000000000000000e+00
 0.000000000000000000e+00
 0.000000000000000000e+00
 0.000000000000000000e+00
 0.000000000000000000e+00
 0.000000000000000000e+00
 0.000000000000000000e+00
 0.000000000000000000e+00
 0.000000000000000000e+00
 0.000000000000000000e+00
 0.000000000000000000e+00
 </DataArray>
 <DataArray Name="vel.y" type="Float32" NumberOfComponents="1" format="ascii">
 0.000000000000000000e+00
 0.000000000000000000e+00
 0.000000000000000000e+00
 0.000000000000000000e+00
 0.000000000000000000e+00
 0.000000000000000000e+00
 0.000000000000000000e+00
 0.000000000000000000e+00
 0.000000000000000000e+00
 0.000000000000000000e+00
 0.000000000000000000e+00
 </DataArray>
 <DataArray Name="vel.z" type="Float32" NumberOfComponents="1" format="ascii">
 0.000000000000000000e+00
 0.000000000000000000e+00
 0.000000000000000000e+00
 0.000000000000000000e+00
 0.000000000000000000e+00
 0.000000000000000000e+00
 0.000000000000000000e+00
 0.000000000000000000e+00
 0.000000000000000000e+00
 0.000000000000000000e+00
 0.000000000000000000e+00
 </DataArray>
 <DataArray Name="p" type="Float32" NumberOfComponents="1" format="ascii">
 1.000000000000000000e+03
 1.000000000000000000e+03
 1.000000000000000000e+03
 1.000000000000000000e+03
 1.000000000000000000e+03
 1.000000000000000000e+03
 1.000000000000000000e+03
 1.000000000000000000e+03
 1.000000000000000000e+03
 1.000000000000000000e+03
 1.000000000000000000e+03
 </DataArray>
 <DataArray Name="a" type="Float32" NumberOfComponents="1" format="ascii">
 4.009710933216483681e+02
 4.009710933216483681e+02
 4.009710933216483681e+02
 4.009710933216483681e+02
 4.009710933216483681e+02
 4.009710933216483681e+02
 4.009710933216483681e+02
 4.009710933216483681e+02
 4.009710933216483681e+02
 4.009710933216483681e+02
 4.009710933216483681e+02
 </DataArray>
 <DataArray Name="mu" type="Float32" NumberOfComponents="1" format="ascii">
 2.287039282521013801e-05
 2.287039282521013801e-05
 2.287039282521013801e-05
 2.287039282521013801e-05
 2.287039282521013801e-05
 2.287039282521013801e-05
 2.287039282521013801e-05
 2.287039282521013801e-05
 2.287039282521013801e-05
 2.287039282521013801e-05
 2.287039282521013801e-05
 </DataArray>
 <DataArray Name="k" type="Float32" NumberOfComponents="1" format="ascii">
 3.360419487637088254e-02
 3.360419487637088254e-02
 3.360419487637088254e-02
 3.360419487637088254e-02
 3.360419487637088254e-02
 3.360419487637088254e-02
 3.360419487637088254e-02
 3.360419487637088254e-02
 3.360419487637088254e-02
 3.360419487637088254e-02
 3.360419487637088254e-02
 </DataArray>
 <DataArray Name="mu_t" type="Float32" NumberOfComponents="1" format="ascii">
 0.000000000000000000e+00
 0.000000000000000000e+00
 0.000000000000000000e+00
 0.000000000000000000e+00
 0.000000000000000000e+00
 0.000000000000000000e+00
 0.000000000000000000e+00
 0.000000000000000000e+00
 0.000000000000000000e+00
 0.000000000000000000e+00
 0.000000000000000000e+00
 </DataArray>
 <DataArray Name="k_t" type="Float32" NumberOfComponents="1" format="ascii">
 0.000000000000000000e+00
 0.000000000000000000e+00
 0.000000000000000000e+00
 0.000000000000000000e+00
 0.000000000000000000e+00
 0.000000000000000000e+00
 0.000000000000000000e+00
 0.000000000000000000e+00
 0.000000000000000000e+00
 0.000000000000000000e+00
 0.000000000000000000e+00
 </DataArray>
 <DataArray Name="S" type="Float32" NumberOfComponents="1" format="ascii">
 0.000000000000000000e+00
 0.000000000000000000e+00
 0.000000000000000000e+00
 0.000000000000000000e+00
 0.000000000000000000e+00
 0.000000000000000000e+00
 0.000000000000000000e+00
 0.000000000000000000e+00
 0.000000000000000000e+00
 0.000000000000000000e+00
 0.000000000000000000e+00
 </DataArray>
 <DataArray Name="massf[0]-air" type="Float32" NumberOfComponents="1" format="ascii">
 1.000000000000000000e+00
 1.000000000000000000e+00
 1.000000000000000000e+00
 1.000000000000000000e+00
 1.000000000000000000e+00
 1.000000000000000000e+00
 1.000000000000000000e+00
 1.000000000000000000e+00
 1.000000000000000000e+00
 1.000000000000000000e+00
 1.000000000000000000e+00
 </DataArray>
 <DataArray Name="u" type="Float32" NumberOfComponents="1" format="ascii">
 2.871032458563536638e+05
 2.871032458563536638e+05
 2.871032458563536638e+05
 2.871032458563536638e+05
 2.871032458563536638e+05
 2.871032458563536638e+05
 2.871032458563536638e+05
 2.871032458563536638e+05
 2.871032458563536638e+05
 2.871032458563536638e+05
 2.871032458563536638e+05
 </DataArray>
 <DataArray Name="T" type="Float32" NumberOfComponents="1" format="ascii">
 4.000000000000000000e+02
 4.000000000000000000e+02
 4.000000000000000000e+02
 4.000000000000000000e+02
 4.000000000000000000e+02
 4.000000000000000000e+02
 4.000000000000000000e+02
 4.000000000000000000e+02
 4.000000000000000000e+02
 4.000000000000000000e+02
 4.000000000000000000e+02
 </DataArray>
 <DataArray Name="vel.vector" type="Float32" NumberOfComponents="3" format="ascii">
 0.000000000000000000e+00 0.000000000000000000e+00 0.000000000000000000e+00
 0.000000000000000000e+00 0.000000000000000000e+00 0.000000000000000000e+00
 0.000000000000000000e+00 0.000000000000000000e+00 0.000000000000000000e+00
 0.000000000000000000e+00 0.000000000000000000e+00 0.000000000000000000e+00
 0.000000000000000000e+00 0.000000000000000000e+00 0.000000000000000000e+00
 0.000000000000000000e+00 0.000000000000000000e+00 0.000000000000000000e+00
 0.000000000000000000e+00 0.000000000000000000e+00 0.000000000000000000e+00
 0.000000000000000000e+00 0.000000000000000000e+00 0.000000000000000000e+00
 0.000000000000000000e+00 0.000000000000000000e+00 0.000000000000000000e+00
 0.000000000000000000e+00 0.000000000000000000e+00 0.000000000000000000e+00
 0.000000000000000000e+00 0.000000000000000000e+00 0.000000000000000000e+00
 </DataArray>
</CellData>
</Piece>
</UnstructuredGrid>
</VTKFile>
