<VTKFile type="UnstructuredGrid" byte_order="BigEndian">
<UnstructuredGrid><Piece NumberOfPoints="46" NumberOfCells="22">
<Points>
 <DataArray type="Float32" NumberOfComponents="3" format="ascii">
 9.822690010070800781e+00 0.000000000000000000e+00 0.000000000000000000e+00
 9.829310417175292969e+00 0.000000000000000000e+00 0.000000000000000000e+00
 9.835929870605468750e+00 0.000000000000000000e+00 0.000000000000000000e+00
 9.842550277709960938e+00 0.000000000000000000e+00 0.000000000000000000e+00
 9.849170684814453125e+00 0.000000000000000000e+00 0.000000000000000000e+00
 9.855791091918945312e+00 0.000000000000000000e+00 0.000000000000000000e+00
 9.862410545349121094e+00 0.000000000000000000e+00 0.000000000000000000e+00
 9.869030952453613281e+00 0.000000000000000000e+00 0.000000000000000000e+00
 9.875651359558105469e+00 0.000000000000000000e+00 0.000000000000000000e+00
 9.882271766662597656e+00 0.000000000000000000e+00 0.000000000000000000e+00
 9.888891220092773438e+00 0.000000000000000000e+00 0.000000000000000000e+00
 9.895511627197265625e+00 0.000000000000000000e+00 0.000000000000000000e+00
 9.902132034301757812e+00 0.000000000000000000e+00 0.000000000000000000e+00
 9.908752441406250000e+00 0.000000000000000000e+00 0.000000000000000000e+00
 9.915371894836425781e+00 0.000000000000000000e+00 0.000000000000000000e+00
 9.921992301940917969e+00 0.000000000000000000e+00 0.000000000000000000e+00
 9.928612709045410156e+00 0.000000000000000000e+00 0.000000000000000000e+00
 9.935232162475585938e+00 0.000000000000000000e+00 0.000000000000000000e+00
 9.941852569580078125e+00 0.000000000000000000e+00 0.000000000000000000e+00
 9.948472976684570312e+00 0.000000000000000000e+00 0.000000000000000000e+00
 9.955093383789062500e+00 0.000000000000000000e+00 0.000000000000000000e+00
 9.961712837219238281e+00 0.000000000000000000e+00 0.000000000000000000e+00
 9.968333244323730469e+00 0.000000000000000000e+00 0.000000000000000000e+00
 9.822690010070800781e+00 9.982699900865554810e-02 0.000000000000000000e+00
 9.829310417175292969e+00 9.987304359674453735e-02 0.000000000000000000e+00
 9.835929870605468750e+00 9.991908818483352661e-02 0.000000000000000000e+00
 9.842550277709960938e+00 9.996513277292251587e-02 0.000000000000000000e+00
 9.849170684814453125e+00 1.000111848115921021e-01 0.000000000000000000e+00
 9.855791091918945312e+00 1.000572293996810913e-01 0.000000000000000000e+00
 9.862410545349121094e+00 1.001032739877700806e-01 0.000000000000000000e+00
 9.869030952453613281e+00 1.001493185758590698e-01 0.000000000000000000e+00
 9.875651359558105469e+00 1.001953631639480591e-01 0.000000000000000000e+00
 9.882271766662597656e+00 1.002414077520370483e-01 0.000000000000000000e+00
 9.888891220092773438e+00 1.002874523401260376e-01 0.000000000000000000e+00
 9.895511627197265625e+00 1.003334969282150269e-01 0.000000000000000000e+00
 9.902132034301757812e+00 1.003795489668846130e-01 0.000000000000000000e+00
 9.908752441406250000e+00 1.004255935549736023e-01 0.000000000000000000e+00
 9.915371894836425781e+00 1.004716381430625916e-01 0.000000000000000000e+00
 9.921992301940917969e+00 1.005176827311515808e-01 0.000000000000000000e+00
 9.928612709045410156e+00 1.005637273192405701e-01 0.000000000000000000e+00
 9.935232162475585938e+00 1.006097719073295593e-01 0.000000000000000000e+00
 9.941852569580078125e+00 1.006558164954185486e-01 0.000000000000000000e+00
 9.948472976684570312e+00 1.007018610835075378e-01 0.000000000000000000e+00
 9.955093383789062500e+00 1.007479056715965271e-01 0.000000000000000000e+00
 9.961712837219238281e+00 1.007939577102661133e-01 0.000000000000000000e+00
 9.968333244323730469e+00 1.008400022983551025e-01 0.000000000000000000e+00
 </DataArray>
</Points>
<Cells>
 <DataArray type="Int32" Name="connectivity" format="ascii">
 0 1 24 23
 1 2 25 24
 2 3 26 25
 3 4 27 26
 4 5 28 27
 5 6 29 28
 6 7 30 29
 7 8 31 30
 8 9 32 31
 9 10 33 32
 10 11 34 33
 11 12 35 34
 12 13 36 35
 13 14 37 36
 14 15 38 37
 15 16 39 38
 16 17 40 39
 17 18 41 40
 18 19 42 41
 19 20 43 42
 20 21 44 43
 21 22 45 44
 </DataArray>
 <DataArray type="Int32" Name="offsets" format="ascii">
 4
 8
 12
 16
 20
 24
 28
 32
 36
 40
 44
 48
 52
 56
 60
 64
 68
 72
 76
 80
 84
 88
 </DataArray>
 <DataArray type="UInt8" Name="types" format="ascii">
 9
 9
 9
 9
 9
 9
 9
 9
 9
 9
 9
 9
 9
 9
 9
 9
 9
 9
 9
 9
 9
 9
 </DataArray>
</Cells>
<CellData>
 <DataArray Name="pos.x" type="Float32" NumberOfComponents="1" format="ascii">
 9.826000330163308760e+00
 9.832620481561068715e+00
 9.839240632957592325e+00
 9.845860784356382567e+00
 9.852480935754826419e+00
 9.859101087154652276e+00
 9.865721238550195338e+00
 9.872341389948509516e+00
 9.878961541349013942e+00
 9.885581692746976401e+00
 9.892201844147507472e+00
 9.898821995542810726e+00
 9.905442146944745119e+00
 9.912062298344396893e+00
 9.918682449742149743e+00
 9.925302601140929326e+00
 9.931922752541868959e+00
 9.938542903938373030e+00
 9.945163055342769454e+00
 9.951783206741200871e+00
 9.958403358141779904e+00
 9.965023509538943003e+00
 </DataArray>
 <DataArray Name="pos.y" type="Float32" NumberOfComponents="1" format="ascii">
 4.992501224838374885e-02
 4.994803497524093888e-02
 4.997105770210014120e-02
 4.999408042896644200e-02
 5.001710315583480365e-02
 5.004012588271024298e-02
 5.006314860956764118e-02
 5.008617133643035457e-02
 5.010919406330355264e-02
 5.013221679017714622e-02
 5.015523951703607791e-02
 5.017826224390024847e-02
 5.020128497077493146e-02
 5.022430769764670011e-02
 5.024733042452211862e-02
 5.027035315138445037e-02
 5.029337587825734313e-02
 5.031639860511199352e-02
 5.033942133201078223e-02
 5.036244405887455033e-02
 5.038546678574893495e-02
 5.040848951261017730e-02
 </DataArray>
 <DataArray Name="pos.z" type="Float32" NumberOfComponents="1" format="ascii">
 0.000000000000000000e+00
 0.000000000000000000e+00
 0.000000000000000000e+00
 0.000000000000000000e+00
 0.000000000000000000e+00
 0.000000000000000000e+00
 0.000000000000000000e+00
 0.000000000000000000e+00
 0.000000000000000000e+00
 0.000000000000000000e+00
 0.000000000000000000e+00
 0.000000000000000000e+00
 0.000000000000000000e+00
 0.000000000000000000e+00
 0.000000000000000000e+00
 0.000000000000000000e+00
 0.000000000000000000e+00
 0.000000000000000000e+00
 0.000000000000000000e+00
 0.000000000000000000e+00
 0.000000000000000000e+00
 0.000000000000000000e+00
 </DataArray>
 <DataArray Name="volume" type="Float32" NumberOfComponents="1" format="ascii">
 3.300154538780131804e-05
 3.303198947707428702e-05
 3.306244760230352505e-05
 3.309291976345357872e-05
 3.312340596055994888e-05
 3.315390619358710080e-05
 3.318442046257950710e-05
 3.321494876747482615e-05
 3.324549110832652267e-05
 3.327604748511678865e-05
 3.330661789786346598e-05
 3.333720234651295442e-05
 3.336780083111886099e-05
 3.339841335167229524e-05
 3.342903990815532039e-05
 3.345968050056793644e-05
 3.349033512893705871e-05
 3.352100379322675268e-05
 3.355168649347299353e-05
 3.358238322963978575e-05
 3.361309400176315195e-05
 3.364381880981606840e-05
 </DataArray>
 <DataArray Name="rho" type="Float32" NumberOfComponents="1" format="ascii">
 5.775140888238352232e-04
 5.775140888238352232e-04
 5.775140888238352232e-04
 5.775140888238352232e-04
 5.775140888238352232e-04
 5.775140888238352232e-04
 5.775140888238352232e-04
 5.775140888238352232e-04
 5.775140888238352232e-04
 5.775140888238352232e-04
 5.775140888238352232e-04
 5.775140888238352232e-04
 5.775140888238352232e-04
 5.775140888238352232e-04
 5.775140888238352232e-04
 5.775140888238352232e-04
 5.775140888238352232e-04
 5.775140888238352232e-04
 5.775140888238352232e-04
 5.775140888238352232e-04
 5.775140888238352232e-04
 5.775140888238352232e-04
 </DataArray>
 <DataArray Name="vel.x" type="Float32" NumberOfComponents="1" format="ascii">
 3.934890468869596641e-14
 3.863036322832435950e-14
 1.162230722671138922e-13
 1.160528692212752340e-13
 3.863704421271859180e-14
 -1.847459073478909978e-14
 3.875577353398748283e-14
 7.370725012761311864e-14
 1.728447847690571094e-13
 5.817514926880578647e-14
 1.736348599403885170e-13
 1.739246748128436492e-13
 1.161128668611263182e-13
 5.387566895915304447e-14
 1.991298361460802501e-14
 1.923936430477446972e-14
 3.826825221840929015e-14
 -1.914548581262184803e-14
 -1.502438664457303142e-13
 -1.179505022137769031e-13
 -5.789283431484107772e-14
 -1.897952026864598135e-14
 </DataArray>
 <DataArray Name="vel.y" type="Float32" NumberOfComponents="1" format="ascii">
 -5.259269416396772225e-11
 -1.375655853117707549e-11
 1.625852291187079560e-11
 1.307528512185787177e-11
 1.705432368723965508e-12
 -4.296508922424672220e-11
 3.486078639433011682e-12
 2.558071009520910239e-11
 -2.386456821252735405e-12
 -3.035481605573238451e-11
 1.572079227144957057e-11
 3.808728417518052049e-11
 1.011901711318567839e-11
 -1.704991959450118954e-12
 -2.967323702148921565e-11
 8.981426742780083848e-12
 -2.614613366058500527e-12
 7.719528220366873936e-11
 -5.855141988587912512e-11
 -1.992014862449676249e-11
 -3.172006017544192906e-11
 2.297032594237641107e-11
 </DataArray>
 <DataArray Name="vel.z" type="Float32" NumberOfComponents="1" format="ascii">
 0.000000000000000000e+00
 0.000000000000000000e+00
 0.000000000000000000e+00
 0.000000000000000000e+00
 0.000000000000000000e+00
 0.000000000000000000e+00
 0.000000000000000000e+00
 0.000000000000000000e+00
 0.000000000000000000e+00
 0.000000000000000000e+00
 0.000000000000000000e+00
 0.000000000000000000e+00
 0.000000000000000000e+00
 0.000000000000000000e+00
 0.000000000000000000e+00
 0.000000000000000000e+00
 0.000000000000000000e+00
 0.000000000000000000e+00
 0.000000000000000000e+00
 0.000000000000000000e+00
 0.000000000000000000e+00
 0.000000000000000000e+00
 </DataArray>
 <DataArray Name="p" type="Float32" NumberOfComponents="1" format="ascii">
 4.999999999999998579e+01
 4.999999999999998579e+01
 4.999999999999998579e+01
 4.999999999999998579e+01
 4.999999999999998579e+01
 4.999999999999998579e+01
 4.999999999999998579e+01
 4.999999999999998579e+01
 4.999999999999998579e+01
 4.999999999999998579e+01
 4.999999999999998579e+01
 4.999999999999998579e+01
 4.999999999999998579e+01
 4.999999999999998579e+01
 4.999999999999998579e+01
 4.999999999999998579e+01
 4.999999999999998579e+01
 4.999999999999998579e+01
 4.999999999999998579e+01
 4.999999999999998579e+01
 4.999999999999998579e+01
 4.999999999999998579e+01
 </DataArray>
 <DataArray Name="a" type="Float32" NumberOfComponents="1" format="ascii">
 3.479677708626071535e+02
 3.479677708626071535e+02
 3.479677708626071535e+02
 3.479677708626071535e+02
 3.479677708626071535e+02
 3.479677708626071535e+02
 3.479677708626071535e+02
 3.479677708626071535e+02
 3.479677708626071535e+02
 3.479677708626071535e+02
 3.479677708626071535e+02
 3.479677708626071535e+02
 3.479677708626071535e+02
 3.479677708626071535e+02
 3.479677708626071535e+02
 3.479677708626071535e+02
 3.479677708626071535e+02
 3.479677708626071535e+02
 3.479677708626071535e+02
 3.479677708626071535e+02
 3.479677708626071535e+02
 3.479677708626071535e+02
 </DataArray>
 <DataArray Name="mu" type="Float32" NumberOfComponents="1" format="ascii">
 1.847444588311345095e-05
 1.847444588311345095e-05
 1.847444588311345095e-05
 1.847444588311345095e-05
 1.847444588311345095e-05
 1.847444588311345095e-05
 1.847444588311345095e-05
 1.847444588311345095e-05
 1.847444588311345095e-05
 1.847444588311345095e-05
 1.847444588311345095e-05
 1.847444588311345095e-05
 1.847444588311345095e-05
 1.847444588311345095e-05
 1.847444588311345095e-05
 1.847444588311345095e-05
 1.847444588311345095e-05
 1.847444588311345095e-05
 1.847444588311345095e-05
 1.847444588311345095e-05
 1.847444588311345095e-05
 1.847444588311345095e-05
 </DataArray>
 <DataArray Name="k" type="Float32" NumberOfComponents="1" format="ascii">
 2.625219405453244753e-02
 2.625219405453244753e-02
 2.625219405453244753e-02
 2.625219405453244753e-02
 2.625219405453244753e-02
 2.625219405453244753e-02
 2.625219405453244753e-02
 2.625219405453244753e-02
 2.625219405453244753e-02
 2.625219405453244753e-02
 2.625219405453244753e-02
 2.625219405453244753e-02
 2.625219405453244753e-02
 2.625219405453244753e-02
 2.625219405453244753e-02
 2.625219405453244753e-02
 2.625219405453244753e-02
 2.625219405453244753e-02
 2.625219405453244753e-02
 2.625219405453244753e-02
 2.625219405453244753e-02
 2.625219405453244753e-02
 </DataArray>
 <DataArray Name="mu_t" type="Float32" NumberOfComponents="1" format="ascii">
 0.000000000000000000e+00
 0.000000000000000000e+00
 0.000000000000000000e+00
 0.000000000000000000e+00
 0.000000000000000000e+00
 0.000000000000000000e+00
 0.000000000000000000e+00
 0.000000000000000000e+00
 0.000000000000000000e+00
 0.000000000000000000e+00
 0.000000000000000000e+00
 0.000000000000000000e+00
 0.000000000000000000e+00
 0.000000000000000000e+00
 0.000000000000000000e+00
 0.000000000000000000e+00
 0.000000000000000000e+00
 0.000000000000000000e+00
 0.000000000000000000e+00
 0.000000000000000000e+00
 0.000000000000000000e+00
 0.000000000000000000e+00
 </DataArray>
 <DataArray Name="k_t" type="Float32" NumberOfComponents="1" format="ascii">
 0.000000000000000000e+00
 0.000000000000000000e+00
 0.000000000000000000e+00
 0.000000000000000000e+00
 0.000000000000000000e+00
 0.000000000000000000e+00
 0.000000000000000000e+00
 0.000000000000000000e+00
 0.000000000000000000e+00
 0.000000000000000000e+00
 0.000000000000000000e+00
 0.000000000000000000e+00
 0.000000000000000000e+00
 0.000000000000000000e+00
 0.000000000000000000e+00
 0.000000000000000000e+00
 0.000000000000000000e+00
 0.000000000000000000e+00
 0.000000000000000000e+00
 0.000000000000000000e+00
 0.000000000000000000e+00
 0.000000000000000000e+00
 </DataArray>
 <DataArray Name="S" type="Float32" NumberOfComponents="1" format="ascii">
 0.000000000000000000e+00
 0.000000000000000000e+00
 0.000000000000000000e+00
 0.000000000000000000e+00
 0.000000000000000000e+00
 0.000000000000000000e+00
 0.000000000000000000e+00
 0.000000000000000000e+00
 0.000000000000000000e+00
 0.000000000000000000e+00
 0.000000000000000000e+00
 0.000000000000000000e+00
 0.000000000000000000e+00
 0.000000000000000000e+00
 0.000000000000000000e+00
 0.000000000000000000e+00
 0.000000000000000000e+00
 0.000000000000000000e+00
 0.000000000000000000e+00
 0.000000000000000000e+00
 0.000000000000000000e+00
 0.000000000000000000e+00
 </DataArray>
 <DataArray Name="massf[0]-Ar" type="Float32" NumberOfComponents="1" format="ascii">
 0.000000000000000000e+00
 0.000000000000000000e+00
 0.000000000000000000e+00
 0.000000000000000000e+00
 0.000000000000000000e+00
 0.000000000000000000e+00
 0.000000000000000000e+00
 0.000000000000000000e+00
 0.000000000000000000e+00
 0.000000000000000000e+00
 0.000000000000000000e+00
 0.000000000000000000e+00
 0.000000000000000000e+00
 0.000000000000000000e+00
 0.000000000000000000e+00
 0.000000000000000000e+00
 0.000000000000000000e+00
 0.000000000000000000e+00
 0.000000000000000000e+00
 0.000000000000000000e+00
 0.000000000000000000e+00
 0.000000000000000000e+00
 </DataArray>
 <DataArray Name="massf[1]-He" type="Float32" NumberOfComponents="1" format="ascii">
 0.000000000000000000e+00
 0.000000000000000000e+00
 0.000000000000000000e+00
 0.000000000000000000e+00
 0.000000000000000000e+00
 0.000000000000000000e+00
 0.000000000000000000e+00
 0.000000000000000000e+00
 0.000000000000000000e+00
 0.000000000000000000e+00
 0.000000000000000000e+00
 0.000000000000000000e+00
 0.000000000000000000e+00
 0.000000000000000000e+00
 0.000000000000000000e+00
 0.000000000000000000e+00
 0.000000000000000000e+00
 0.000000000000000000e+00
 0.000000000000000000e+00
 0.000000000000000000e+00
 0.000000000000000000e+00
 0.000000000000000000e+00
 </DataArray>
 <DataArray Name="massf[2]-N" type="Float32" NumberOfComponents="1" format="ascii">
 0.000000000000000000e+00
 0.000000000000000000e+00
 0.000000000000000000e+00
 0.000000000000000000e+00
 0.000000000000000000e+00
 0.000000000000000000e+00
 0.000000000000000000e+00
 0.000000000000000000e+00
 0.000000000000000000e+00
 0.000000000000000000e+00
 0.000000000000000000e+00
 0.000000000000000000e+00
 0.000000000000000000e+00
 0.000000000000000000e+00
 0.000000000000000000e+00
 0.000000000000000000e+00
 0.000000000000000000e+00
 0.000000000000000000e+00
 0.000000000000000000e+00
 0.000000000000000000e+00
 0.000000000000000000e+00
 0.000000000000000000e+00
 </DataArray>
 <DataArray Name="massf[3]-N2" type="Float32" NumberOfComponents="1" format="ascii">
 7.778669428624583881e-01
 7.778669428624583881e-01
 7.778669428624583881e-01
 7.778669428624583881e-01
 7.778669428624583881e-01
 7.778669428624583881e-01
 7.778669428624583881e-01
 7.778669428624583881e-01
 7.778669428624583881e-01
 7.778669428624583881e-01
 7.778669428624583881e-01
 7.778669428624583881e-01
 7.778669428624583881e-01
 7.778669428624583881e-01
 7.778669428624583881e-01
 7.778669428624583881e-01
 7.778669428624583881e-01
 7.778669428624583881e-01
 7.778669428624583881e-01
 7.778669428624583881e-01
 7.778669428624583881e-01
 7.778669428624583881e-01
 </DataArray>
 <DataArray Name="massf[4]-NO" type="Float32" NumberOfComponents="1" format="ascii">
 0.000000000000000000e+00
 0.000000000000000000e+00
 0.000000000000000000e+00
 0.000000000000000000e+00
 0.000000000000000000e+00
 0.000000000000000000e+00
 0.000000000000000000e+00
 0.000000000000000000e+00
 0.000000000000000000e+00
 0.000000000000000000e+00
 0.000000000000000000e+00
 0.000000000000000000e+00
 0.000000000000000000e+00
 0.000000000000000000e+00
 0.000000000000000000e+00
 0.000000000000000000e+00
 0.000000000000000000e+00
 0.000000000000000000e+00
 0.000000000000000000e+00
 0.000000000000000000e+00
 0.000000000000000000e+00
 0.000000000000000000e+00
 </DataArray>
 <DataArray Name="massf[5]-O" type="Float32" NumberOfComponents="1" format="ascii">
 0.000000000000000000e+00
 0.000000000000000000e+00
 0.000000000000000000e+00
 0.000000000000000000e+00
 0.000000000000000000e+00
 0.000000000000000000e+00
 0.000000000000000000e+00
 0.000000000000000000e+00
 0.000000000000000000e+00
 0.000000000000000000e+00
 0.000000000000000000e+00
 0.000000000000000000e+00
 0.000000000000000000e+00
 0.000000000000000000e+00
 0.000000000000000000e+00
 0.000000000000000000e+00
 0.000000000000000000e+00
 0.000000000000000000e+00
 0.000000000000000000e+00
 0.000000000000000000e+00
 0.000000000000000000e+00
 0.000000000000000000e+00
 </DataArray>
 <DataArray Name="massf[6]-O2" type="Float32" NumberOfComponents="1" format="ascii">
 2.221330571375415841e-01
 2.221330571375415841e-01
 2.221330571375415841e-01
 2.221330571375415841e-01
 2.221330571375415841e-01
 2.221330571375415841e-01
 2.221330571375415841e-01
 2.221330571375415841e-01
 2.221330571375415841e-01
 2.221330571375415841e-01
 2.221330571375415841e-01
 2.221330571375415841e-01
 2.221330571375415841e-01
 2.221330571375415841e-01
 2.221330571375415841e-01
 2.221330571375415841e-01
 2.221330571375415841e-01
 2.221330571375415841e-01
 2.221330571375415841e-01
 2.221330571375415841e-01
 2.221330571375415841e-01
 2.221330571375415841e-01
 </DataArray>
 <DataArray Name="dt_chem" type="Float32" NumberOfComponents="1" format="ascii">
 -1.000000000000000000e+00
 -1.000000000000000000e+00
 -1.000000000000000000e+00
 -1.000000000000000000e+00
 -1.000000000000000000e+00
 -1.000000000000000000e+00
 -1.000000000000000000e+00
 -1.000000000000000000e+00
 -1.000000000000000000e+00
 -1.000000000000000000e+00
 -1.000000000000000000e+00
 -1.000000000000000000e+00
 -1.000000000000000000e+00
 -1.000000000000000000e+00
 -1.000000000000000000e+00
 -1.000000000000000000e+00
 -1.000000000000000000e+00
 -1.000000000000000000e+00
 -1.000000000000000000e+00
 -1.000000000000000000e+00
 -1.000000000000000000e+00
 -1.000000000000000000e+00
 </DataArray>
 <DataArray Name="u" type="Float32" NumberOfComponents="1" format="ascii">
 -8.470447781759938516e+04
 -8.470447781759938516e+04
 -8.470447781759938516e+04
 -8.470447781759938516e+04
 -8.470447781759938516e+04
 -8.470447781759938516e+04
 -8.470447781759938516e+04
 -8.470447781759938516e+04
 -8.470447781759938516e+04
 -8.470447781759938516e+04
 -8.470447781759938516e+04
 -8.470447781759938516e+04
 -8.470447781759938516e+04
 -8.470447781759938516e+04
 -8.470447781759938516e+04
 -8.470447781759938516e+04
 -8.470447781759938516e+04
 -8.470447781759938516e+04
 -8.470447781759938516e+04
 -8.470447781759938516e+04
 -8.470447781759938516e+04
 -8.470447781759938516e+04
 </DataArray>
 <DataArray Name="T" type="Float32" NumberOfComponents="1" format="ascii">
 3.000000000000000000e+02
 3.000000000000000000e+02
 3.000000000000000000e+02
 3.000000000000000000e+02
 3.000000000000000000e+02
 3.000000000000000000e+02
 3.000000000000000000e+02
 3.000000000000000000e+02
 3.000000000000000000e+02
 3.000000000000000000e+02
 3.000000000000000000e+02
 3.000000000000000000e+02
 3.000000000000000000e+02
 3.000000000000000000e+02
 3.000000000000000000e+02
 3.000000000000000000e+02
 3.000000000000000000e+02
 3.000000000000000000e+02
 3.000000000000000000e+02
 3.000000000000000000e+02
 3.000000000000000000e+02
 3.000000000000000000e+02
 </DataArray>
 <DataArray Name="vel.vector" type="Float32" NumberOfComponents="3" format="ascii">
 3.934890540030315520e-14 -5.259269408863787021e-11 0.000000000000000000e+00
 3.863036396301554320e-14 -1.375655839241929357e-11 0.000000000000000000e+00
 1.162230712061299021e-13 1.625852230624502681e-11 0.000000000000000000e+00
 1.160528650175768339e-13 1.307528477850761206e-11 0.000000000000000000e+00
 3.863704535890348513e-14 1.705432344824286961e-12 0.000000000000000000e+00
 -1.847459156685028747e-14 -4.296508981926905335e-11 0.000000000000000000e+00
 3.875577227305422590e-14 3.486078613279541827e-12 0.000000000000000000e+00
 7.370724852944626759e-14 2.558070942570989104e-11 0.000000000000000000e+00
 1.728447842751917873e-13 -2.386456917496948549e-12 0.000000000000000000e+00
 5.817515116553553800e-14 -3.035481588309352219e-11 0.000000000000000000e+00
 1.736348559508091305e-13 1.572079272316173615e-11 0.000000000000000000e+00
 1.739246767440416619e-13 3.808728332721500465e-11 0.000000000000000000e+00
 1.161128620552967505e-13 1.011901673564352677e-11 0.000000000000000000e+00
 5.387566952351312277e-14 -1.704991941901823349e-12 0.000000000000000000e+00
 1.991298395436196661e-14 -2.967323609048833077e-11 0.000000000000000000e+00
 1.923936406239903918e-14 8.981426713461360123e-12 0.000000000000000000e+00
 3.826825060180075178e-14 -2.614613386908715142e-12 0.000000000000000000e+00
 -1.914548570678895056e-14 7.719528488658866650e-11 0.000000000000000000e+00
 -1.502438717057921758e-13 -5.855142065636087523e-11 0.000000000000000000e+00
 -1.179505034224967441e-13 -1.992014886376125560e-11 0.000000000000000000e+00
 -5.789283169608389068e-14 -3.172006060592202914e-11 0.000000000000000000e+00
 -1.897951976516983746e-14 2.297032529463560735e-11 0.000000000000000000e+00
 </DataArray>
</CellData>
</Piece>
</UnstructuredGrid>
</VTKFile>
