<VTKFile type="UnstructuredGrid" byte_order="BigEndian">
<UnstructuredGrid><Piece NumberOfPoints="30" NumberOfCells="14">
<Points>
 <DataArray type="Float32" NumberOfComponents="3" format="ascii">
 -1.053333356976509094e-01 0.000000000000000000e+00 0.000000000000000000e+00
 -9.914285689592361450e-02 0.000000000000000000e+00 0.000000000000000000e+00
 -9.295237809419631958e-02 0.000000000000000000e+00 0.000000000000000000e+00
 -8.676190674304962158e-02 0.000000000000000000e+00 0.000000000000000000e+00
 -8.057142794132232666e-02 0.000000000000000000e+00 0.000000000000000000e+00
 -7.438094913959503174e-02 0.000000000000000000e+00 0.000000000000000000e+00
 -6.819047778844833374e-02 0.000000000000000000e+00 0.000000000000000000e+00
 -6.199999898672103882e-02 0.000000000000000000e+00 0.000000000000000000e+00
 -5.580952391028404236e-02 0.000000000000000000e+00 0.000000000000000000e+00
 -4.961904883384704590e-02 0.000000000000000000e+00 0.000000000000000000e+00
 -4.342857003211975098e-02 0.000000000000000000e+00 0.000000000000000000e+00
 -3.723809495568275452e-02 0.000000000000000000e+00 0.000000000000000000e+00
 -3.104761987924575806e-02 0.000000000000000000e+00 0.000000000000000000e+00
 -2.485714294016361237e-02 0.000000000000000000e+00 0.000000000000000000e+00
 -1.866666600108146667e-02 0.000000000000000000e+00 0.000000000000000000e+00
 -1.053333356976509094e-01 4.250000044703483582e-02 0.000000000000000000e+00
 -9.914285689592361450e-02 4.250000044703483582e-02 0.000000000000000000e+00
 -9.295237809419631958e-02 4.250000044703483582e-02 0.000000000000000000e+00
 -8.676190674304962158e-02 4.250000044703483582e-02 0.000000000000000000e+00
 -8.057142794132232666e-02 4.250000044703483582e-02 0.000000000000000000e+00
 -7.438094913959503174e-02 4.250000044703483582e-02 0.000000000000000000e+00
 -6.819047778844833374e-02 4.250000044703483582e-02 0.000000000000000000e+00
 -6.199999898672103882e-02 4.250000044703483582e-02 0.000000000000000000e+00
 -5.580952391028404236e-02 4.250000044703483582e-02 0.000000000000000000e+00
 -4.961904883384704590e-02 4.250000044703483582e-02 0.000000000000000000e+00
 -4.342857003211975098e-02 4.250000044703483582e-02 0.000000000000000000e+00
 -3.723809495568275452e-02 4.250000044703483582e-02 0.000000000000000000e+00
 -3.104761987924575806e-02 4.250000044703483582e-02 0.000000000000000000e+00
 -2.485714294016361237e-02 4.250000044703483582e-02 0.000000000000000000e+00
 -1.866666600108146667e-02 4.250000044703483582e-02 0.000000000000000000e+00
 </DataArray>
</Points>
<Cells>
 <DataArray type="Int32" Name="connectivity" format="ascii">
 0 1 16 15
 1 2 17 16
 2 3 18 17
 3 4 19 18
 4 5 20 19
 5 6 21 20
 6 7 22 21
 7 8 23 22
 8 9 24 23
 9 10 25 24
 10 11 26 25
 11 12 27 26
 12 13 28 27
 13 14 29 28
 </DataArray>
 <DataArray type="Int32" Name="offsets" format="ascii">
 4
 8
 12
 16
 20
 24
 28
 32
 36
 40
 44
 48
 52
 56
 </DataArray>
 <DataArray type="UInt8" Name="types" format="ascii">
 9
 9
 9
 9
 9
 9
 9
 9
 9
 9
 9
 9
 9
 9
 </DataArray>
</Cells>
<CellData>
 <DataArray Name="pos.x" type="Float32" NumberOfComponents="1" format="ascii">
 -1.022380952380955166e-01
 -9.604761904761913160e-02
 -8.985714285714277438e-02
 -8.366666666666656982e-02
 -7.747619047619040689e-02
 -7.128571428571425783e-02
 -6.509523809523817817e-02
 -5.890476190476190421e-02
 -5.271428571428565801e-02
 -4.652380952380957835e-02
 -4.033333333333332521e-02
 -3.414285714285714146e-02
 -2.795238095238094730e-02
 -2.176190476190477396e-02
 </DataArray>
 <DataArray Name="pos.y" type="Float32" NumberOfComponents="1" format="ascii">
 2.125000000000005704e-02
 2.124999999999999459e-02
 2.124999999999999806e-02
 2.124999999999998071e-02
 2.124999999999999112e-02
 2.124999999999999459e-02
 2.125000000000000500e-02
 2.125000000000000500e-02
 2.124999999999998418e-02
 2.125000000000000847e-02
 2.125000000000001193e-02
 2.124999999999999112e-02
 2.125000000000000153e-02
 2.125000000000000500e-02
 </DataArray>
 <DataArray Name="pos.z" type="Float32" NumberOfComponents="1" format="ascii">
 0.000000000000000000e+00
 0.000000000000000000e+00
 0.000000000000000000e+00
 0.000000000000000000e+00
 0.000000000000000000e+00
 0.000000000000000000e+00
 0.000000000000000000e+00
 0.000000000000000000e+00
 0.000000000000000000e+00
 0.000000000000000000e+00
 0.000000000000000000e+00
 0.000000000000000000e+00
 0.000000000000000000e+00
 0.000000000000000000e+00
 </DataArray>
 <DataArray Name="volume" type="Float32" NumberOfComponents="1" format="ascii">
 5.590773809523795937e-06
 5.590773809523797631e-06
 5.590773809523835748e-06
 5.590773809523812878e-06
 5.590773809523824736e-06
 5.590773809523797631e-06
 5.590773809523810337e-06
 5.590773809523810337e-06
 5.590773809523804408e-06
 5.590773809523796784e-06
 5.590773809523829819e-06
 5.590773809523801867e-06
 5.590773809523813725e-06
 5.590773809523817113e-06
 </DataArray>
 <DataArray Name="rho" type="Float32" NumberOfComponents="1" format="ascii">
 2.454710612770513389e+00
 2.392614890096359304e+00
 2.389244681861847130e+00
 2.388657478273041423e+00
 2.388223063561278003e+00
 2.387806160526376953e+00
 2.387390777666527963e+00
 2.386974029929270991e+00
 2.386555345322843191e+00
 2.386134600126823990e+00
 2.385711754950676777e+00
 2.385286785581779423e+00
 2.384859291822639893e+00
 2.384523728219445804e+00
 </DataArray>
 <DataArray Name="vel.x" type="Float32" NumberOfComponents="1" format="ascii">
 5.898567890588568616e+02
 6.347202605993425095e+02
 6.396772667715312082e+02
 6.427416526466448659e+02
 6.457145761869546732e+02
 6.486781255601142675e+02
 6.516408529941119241e+02
 6.546042576470653103e+02
 6.575686444947334621e+02
 6.605340880932366190e+02
 6.635006188857139477e+02
 6.664682603844911455e+02
 6.694368774327240317e+02
 6.724458359911313892e+02
 </DataArray>
 <DataArray Name="vel.y" type="Float32" NumberOfComponents="1" format="ascii">
 -1.200491449411338039e+02
 -5.350185182200121403e+01
 -2.382735813516904599e+01
 -1.062072270006142460e+01
 -4.742552593257418181e+00
 -2.122426506279253555e+00
 -9.521235853527093562e-01
 -4.281786967676267652e-01
 -1.930358422650761963e-01
 -8.724346145235550853e-02
 -3.952816502465256870e-02
 -1.795371290956333452e-02
 -8.174666875744231176e-03
 -3.731117704061870377e-03
 </DataArray>
 <DataArray Name="vel.z" type="Float32" NumberOfComponents="1" format="ascii">
 0.000000000000000000e+00
 0.000000000000000000e+00
 0.000000000000000000e+00
 0.000000000000000000e+00
 0.000000000000000000e+00
 0.000000000000000000e+00
 0.000000000000000000e+00
 0.000000000000000000e+00
 0.000000000000000000e+00
 0.000000000000000000e+00
 0.000000000000000000e+00
 0.000000000000000000e+00
 0.000000000000000000e+00
 0.000000000000000000e+00
 </DataArray>
 <DataArray Name="p" type="Float32" NumberOfComponents="1" format="ascii">
 1.113763052655745111e+07
 1.083570531134365126e+07
 1.081910288416566886e+07
 1.081536866744708642e+07
 1.081220270688721724e+07
 1.080908211656607129e+07
 1.080595691433547623e+07
 1.080281855027162470e+07
 1.079966526489360444e+07
 1.079649660346595757e+07
 1.079331236453187093e+07
 1.079011240172815323e+07
 1.078689497111506015e+07
 1.078406207790281810e+07
 </DataArray>
 <DataArray Name="a" type="Float32" NumberOfComponents="1" format="ascii">
 2.749923599278313304e+03
 2.747366301057916644e+03
 2.747196257471527133e+03
 2.747059711292674365e+03
 2.746907406692004770e+03
 2.746750730775053398e+03
 2.746592530633500246e+03
 2.746433378437161537e+03
 2.746273378645192679e+03
 2.746112543639546402e+03
 2.745950869462374612e+03
 2.745788350410386101e+03
 2.745624993875556356e+03
 2.745457594976440305e+03
 </DataArray>
 <DataArray Name="mu" type="Float32" NumberOfComponents="1" format="ascii">
 1.064223939492820554e-04
 1.064223939492820554e-04
 1.064223939492820554e-04
 1.064223939492820554e-04
 1.064223939492820554e-04
 1.064223939492820554e-04
 1.064223939492820554e-04
 1.064223939492820554e-04
 1.064223939492820554e-04
 1.064223939492820554e-04
 1.064223939492820554e-04
 1.064223939492820554e-04
 1.064223939492820554e-04
 1.064223939492820554e-04
 </DataArray>
 <DataArray Name="k" type="Float32" NumberOfComponents="1" format="ascii">
 8.304462020313038151e-01
 8.304462020313038151e-01
 8.304462020313038151e-01
 8.304462020313038151e-01
 8.304462020313038151e-01
 8.304462020313038151e-01
 8.304462020313038151e-01
 8.304462020313038151e-01
 8.304462020313038151e-01
 8.304462020313038151e-01
 8.304462020313038151e-01
 8.304462020313038151e-01
 8.304462020313038151e-01
 8.304462020313038151e-01
 </DataArray>
 <DataArray Name="mu_t" type="Float32" NumberOfComponents="1" format="ascii">
 0.000000000000000000e+00
 0.000000000000000000e+00
 0.000000000000000000e+00
 0.000000000000000000e+00
 0.000000000000000000e+00
 0.000000000000000000e+00
 0.000000000000000000e+00
 0.000000000000000000e+00
 0.000000000000000000e+00
 0.000000000000000000e+00
 0.000000000000000000e+00
 0.000000000000000000e+00
 0.000000000000000000e+00
 0.000000000000000000e+00
 </DataArray>
 <DataArray Name="k_t" type="Float32" NumberOfComponents="1" format="ascii">
 0.000000000000000000e+00
 0.000000000000000000e+00
 0.000000000000000000e+00
 0.000000000000000000e+00
 0.000000000000000000e+00
 0.000000000000000000e+00
 0.000000000000000000e+00
 0.000000000000000000e+00
 0.000000000000000000e+00
 0.000000000000000000e+00
 0.000000000000000000e+00
 0.000000000000000000e+00
 0.000000000000000000e+00
 0.000000000000000000e+00
 </DataArray>
 <DataArray Name="S" type="Float32" NumberOfComponents="1" format="ascii">
 0.000000000000000000e+00
 0.000000000000000000e+00
 0.000000000000000000e+00
 0.000000000000000000e+00
 0.000000000000000000e+00
 0.000000000000000000e+00
 0.000000000000000000e+00
 0.000000000000000000e+00
 0.000000000000000000e+00
 0.000000000000000000e+00
 0.000000000000000000e+00
 0.000000000000000000e+00
 0.000000000000000000e+00
 0.000000000000000000e+00
 </DataArray>
 <DataArray Name="massf[0]-Ar" type="Float32" NumberOfComponents="1" format="ascii">
 0.000000000000000000e+00
 0.000000000000000000e+00
 0.000000000000000000e+00
 0.000000000000000000e+00
 0.000000000000000000e+00
 0.000000000000000000e+00
 0.000000000000000000e+00
 0.000000000000000000e+00
 0.000000000000000000e+00
 0.000000000000000000e+00
 0.000000000000000000e+00
 0.000000000000000000e+00
 0.000000000000000000e+00
 0.000000000000000000e+00
 </DataArray>
 <DataArray Name="massf[1]-He" type="Float32" NumberOfComponents="1" format="ascii">
 1.000000000000000000e+00
 1.000000000000000000e+00
 1.000000000000000000e+00
 1.000000000000000000e+00
 1.000000000000000000e+00
 1.000000000000000000e+00
 1.000000000000000000e+00
 1.000000000000000000e+00
 1.000000000000000000e+00
 1.000000000000000000e+00
 1.000000000000000000e+00
 1.000000000000000000e+00
 1.000000000000000000e+00
 1.000000000000000000e+00
 </DataArray>
 <DataArray Name="massf[2]-N" type="Float32" NumberOfComponents="1" format="ascii">
 0.000000000000000000e+00
 0.000000000000000000e+00
 0.000000000000000000e+00
 0.000000000000000000e+00
 0.000000000000000000e+00
 0.000000000000000000e+00
 0.000000000000000000e+00
 0.000000000000000000e+00
 0.000000000000000000e+00
 0.000000000000000000e+00
 0.000000000000000000e+00
 0.000000000000000000e+00
 0.000000000000000000e+00
 0.000000000000000000e+00
 </DataArray>
 <DataArray Name="massf[3]-N2" type="Float32" NumberOfComponents="1" format="ascii">
 0.000000000000000000e+00
 0.000000000000000000e+00
 0.000000000000000000e+00
 0.000000000000000000e+00
 0.000000000000000000e+00
 0.000000000000000000e+00
 0.000000000000000000e+00
 0.000000000000000000e+00
 0.000000000000000000e+00
 0.000000000000000000e+00
 0.000000000000000000e+00
 0.000000000000000000e+00
 0.000000000000000000e+00
 0.000000000000000000e+00
 </DataArray>
 <DataArray Name="massf[4]-NO" type="Float32" NumberOfComponents="1" format="ascii">
 0.000000000000000000e+00
 0.000000000000000000e+00
 0.000000000000000000e+00
 0.000000000000000000e+00
 0.000000000000000000e+00
 0.000000000000000000e+00
 0.000000000000000000e+00
 0.000000000000000000e+00
 0.000000000000000000e+00
 0.000000000000000000e+00
 0.000000000000000000e+00
 0.000000000000000000e+00
 0.000000000000000000e+00
 0.000000000000000000e+00
 </DataArray>
 <DataArray Name="massf[5]-O" type="Float32" NumberOfComponents="1" format="ascii">
 0.000000000000000000e+00
 0.000000000000000000e+00
 0.000000000000000000e+00
 0.000000000000000000e+00
 0.000000000000000000e+00
 0.000000000000000000e+00
 0.000000000000000000e+00
 0.000000000000000000e+00
 0.000000000000000000e+00
 0.000000000000000000e+00
 0.000000000000000000e+00
 0.000000000000000000e+00
 0.000000000000000000e+00
 0.000000000000000000e+00
 </DataArray>
 <DataArray Name="massf[6]-O2" type="Float32" NumberOfComponents="1" format="ascii">
 0.000000000000000000e+00
 0.000000000000000000e+00
 0.000000000000000000e+00
 0.000000000000000000e+00
 0.000000000000000000e+00
 0.000000000000000000e+00
 0.000000000000000000e+00
 0.000000000000000000e+00
 0.000000000000000000e+00
 0.000000000000000000e+00
 0.000000000000000000e+00
 0.000000000000000000e+00
 0.000000000000000000e+00
 0.000000000000000000e+00
 </DataArray>
 <DataArray Name="dt_chem" type="Float32" NumberOfComponents="1" format="ascii">
 -1.000000000000000000e+00
 -1.000000000000000000e+00
 -1.000000000000000000e+00
 -1.000000000000000000e+00
 -1.000000000000000000e+00
 -1.000000000000000000e+00
 -1.000000000000000000e+00
 -1.000000000000000000e+00
 -1.000000000000000000e+00
 -1.000000000000000000e+00
 -1.000000000000000000e+00
 -1.000000000000000000e+00
 -1.000000000000000000e+00
 -1.000000000000000000e+00
 </DataArray>
 <DataArray Name="u" type="Float32" NumberOfComponents="1" format="ascii">
 5.257522050394739956e+06
 5.244869661683515646e+06
 5.244028778072736226e+06
 5.243353580380373634e+06
 5.242600499559178017e+06
 5.241825848025682382e+06
 5.241043705112280324e+06
 5.240256900688104331e+06
 5.239465951943477616e+06
 5.238670920814738609e+06
 5.237871788464772515e+06
 5.237068527438171208e+06
 5.236261175008456223e+06
 5.235433893946161494e+06
 </DataArray>
 <DataArray Name="T" type="Float32" NumberOfComponents="1" format="ascii">
 2.184229430654288080e+03
 2.180168860529665835e+03
 2.179898993159466499e+03
 2.179682299881985273e+03
 2.179440611331801392e+03
 2.179192000026403093e+03
 2.178940984489351649e+03
 2.178688472919271589e+03
 2.178434631299648117e+03
 2.178179479507904944e+03
 2.177923011498588039e+03
 2.177665218460344931e+03
 2.177406112355484311e+03
 2.177140610493116583e+03
 </DataArray>
 <DataArray Name="vel.vector" type="Float32" NumberOfComponents="3" format="ascii">
 5.898568115234375000e+02 -1.200491485595703125e+02 0.000000000000000000e+00
 6.347202758789062500e+02 -5.350185012817382812e+01 0.000000000000000000e+00
 6.396772460937500000e+02 -2.382735824584960938e+01 0.000000000000000000e+00
 6.427416381835937500e+02 -1.062072277069091797e+01 0.000000000000000000e+00
 6.457145996093750000e+02 -4.742552757263183594e+00 0.000000000000000000e+00
 6.486781005859375000e+02 -2.122426509857177734e+00 0.000000000000000000e+00
 6.516408691406250000e+02 -9.521235823631286621e-01 0.000000000000000000e+00
 6.546042480468750000e+02 -4.281786978244781494e-01 0.000000000000000000e+00
 6.575686645507812500e+02 -1.930358409881591797e-01 0.000000000000000000e+00
 6.605340576171875000e+02 -8.724346011877059937e-02 0.000000000000000000e+00
 6.635006103515625000e+02 -3.952816501259803772e-02 0.000000000000000000e+00
 6.664682617187500000e+02 -1.795371249318122864e-02 0.000000000000000000e+00
 6.694368896484375000e+02 -8.174667134881019592e-03 0.000000000000000000e+00
 6.724458618164062500e+02 -3.731117816641926765e-03 0.000000000000000000e+00
 </DataArray>
</CellData>
</Piece>
</UnstructuredGrid>
</VTKFile>
