<VTKFile type="UnstructuredGrid" byte_order="BigEndian">
<UnstructuredGrid><Piece NumberOfPoints="60" NumberOfCells="29">
<Points>
 <DataArray type="Float32" NumberOfComponents="3" format="ascii">
 9.634305953979492188e+00 0.000000000000000000e+00 0.000000000000000000e+00
 9.640802383422851562e+00 0.000000000000000000e+00 0.000000000000000000e+00
 9.647297859191894531e+00 0.000000000000000000e+00 0.000000000000000000e+00
 9.653794288635253906e+00 0.000000000000000000e+00 0.000000000000000000e+00
 9.660289764404296875e+00 0.000000000000000000e+00 0.000000000000000000e+00
 9.666786193847656250e+00 0.000000000000000000e+00 0.000000000000000000e+00
 9.673281669616699219e+00 0.000000000000000000e+00 0.000000000000000000e+00
 9.679778099060058594e+00 0.000000000000000000e+00 0.000000000000000000e+00
 9.686273574829101562e+00 0.000000000000000000e+00 0.000000000000000000e+00
 9.692770004272460938e+00 0.000000000000000000e+00 0.000000000000000000e+00
 9.699266433715820312e+00 0.000000000000000000e+00 0.000000000000000000e+00
 9.705761909484863281e+00 0.000000000000000000e+00 0.000000000000000000e+00
 9.712258338928222656e+00 0.000000000000000000e+00 0.000000000000000000e+00
 9.718753814697265625e+00 0.000000000000000000e+00 0.000000000000000000e+00
 9.725250244140625000e+00 0.000000000000000000e+00 0.000000000000000000e+00
 9.731745719909667969e+00 0.000000000000000000e+00 0.000000000000000000e+00
 9.738242149353027344e+00 0.000000000000000000e+00 0.000000000000000000e+00
 9.744737625122070312e+00 0.000000000000000000e+00 0.000000000000000000e+00
 9.751234054565429688e+00 0.000000000000000000e+00 0.000000000000000000e+00
 9.757729530334472656e+00 0.000000000000000000e+00 0.000000000000000000e+00
 9.764225959777832031e+00 0.000000000000000000e+00 0.000000000000000000e+00
 9.770722389221191406e+00 0.000000000000000000e+00 0.000000000000000000e+00
 9.777217864990234375e+00 0.000000000000000000e+00 0.000000000000000000e+00
 9.783714294433593750e+00 0.000000000000000000e+00 0.000000000000000000e+00
 9.790209770202636719e+00 0.000000000000000000e+00 0.000000000000000000e+00
 9.796706199645996094e+00 0.000000000000000000e+00 0.000000000000000000e+00
 9.803201675415039062e+00 0.000000000000000000e+00 0.000000000000000000e+00
 9.809698104858398438e+00 0.000000000000000000e+00 0.000000000000000000e+00
 9.816193580627441406e+00 0.000000000000000000e+00 0.000000000000000000e+00
 9.822690010070800781e+00 0.000000000000000000e+00 0.000000000000000000e+00
 9.634305953979492188e+00 9.674900025129318237e-02 0.000000000000000000e+00
 9.640802383422851562e+00 9.685514122247695923e-02 0.000000000000000000e+00
 9.647297859191894531e+00 9.696127474308013916e-02 0.000000000000000000e+00
 9.653794288635253906e+00 9.706741571426391602e-02 0.000000000000000000e+00
 9.660289764404296875e+00 9.717354923486709595e-02 0.000000000000000000e+00
 9.666786193847656250e+00 9.727969020605087280e-02 0.000000000000000000e+00
 9.673281669616699219e+00 9.738583117723464966e-02 0.000000000000000000e+00
 9.679778099060058594e+00 9.749196469783782959e-02 0.000000000000000000e+00
 9.686273574829101562e+00 9.759810566902160645e-02 0.000000000000000000e+00
 9.692770004272460938e+00 9.770423918962478638e-02 0.000000000000000000e+00
 9.699266433715820312e+00 9.781038016080856323e-02 0.000000000000000000e+00
 9.705761909484863281e+00 9.791651368141174316e-02 0.000000000000000000e+00
 9.712258338928222656e+00 9.802265465259552002e-02 0.000000000000000000e+00
 9.718753814697265625e+00 9.812879562377929688e-02 0.000000000000000000e+00
 9.725250244140625000e+00 9.823492914438247681e-02 0.000000000000000000e+00
 9.731745719909667969e+00 9.834107011556625366e-02 0.000000000000000000e+00
 9.738242149353027344e+00 9.844720363616943359e-02 0.000000000000000000e+00
 9.744737625122070312e+00 9.855334460735321045e-02 0.000000000000000000e+00
 9.751234054565429688e+00 9.865948557853698730e-02 0.000000000000000000e+00
 9.757729530334472656e+00 9.876561909914016724e-02 0.000000000000000000e+00
 9.764225959777832031e+00 9.887176007032394409e-02 0.000000000000000000e+00
 9.770722389221191406e+00 9.897789359092712402e-02 0.000000000000000000e+00
 9.777217864990234375e+00 9.908403456211090088e-02 0.000000000000000000e+00
 9.783714294433593750e+00 9.919017553329467773e-02 0.000000000000000000e+00
 9.790209770202636719e+00 9.929630905389785767e-02 0.000000000000000000e+00
 9.796706199645996094e+00 9.940245002508163452e-02 0.000000000000000000e+00
 9.803201675415039062e+00 9.950858354568481445e-02 0.000000000000000000e+00
 9.809698104858398438e+00 9.961472451686859131e-02 0.000000000000000000e+00
 9.816193580627441406e+00 9.972086548805236816e-02 0.000000000000000000e+00
 9.822690010070800781e+00 9.982699900865554810e-02 0.000000000000000000e+00
 </DataArray>
</Points>
<Cells>
 <DataArray type="Int32" Name="connectivity" format="ascii">
 0 1 31 30
 1 2 32 31
 2 3 33 32
 3 4 34 33
 4 5 35 34
 5 6 36 35
 6 7 37 36
 7 8 38 37
 8 9 39 38
 9 10 40 39
 10 11 41 40
 11 12 42 41
 12 13 43 42
 13 14 44 43
 14 15 45 44
 15 16 46 45
 16 17 47 46
 17 18 48 47
 18 19 49 48
 19 20 50 49
 20 21 51 50
 21 22 52 51
 22 23 53 52
 23 24 54 53
 24 25 55 54
 25 26 56 55
 26 27 57 56
 27 28 58 57
 28 29 59 58
 </DataArray>
 <DataArray type="Int32" Name="offsets" format="ascii">
 4
 8
 12
 16
 20
 24
 28
 32
 36
 40
 44
 48
 52
 56
 60
 64
 68
 72
 76
 80
 84
 88
 92
 96
 100
 104
 108
 112
 116
 </DataArray>
 <DataArray type="UInt8" Name="types" format="ascii">
 9
 9
 9
 9
 9
 9
 9
 9
 9
 9
 9
 9
 9
 9
 9
 9
 9
 9
 9
 9
 9
 9
 9
 9
 9
 9
 9
 9
 9
 </DataArray>
</Cells>
<CellData>
 <DataArray Name="pos.x" type="Float32" NumberOfComponents="1" format="ascii">
 9.637554593541606707e+00
 9.644050592891172613e+00
 9.650546592243378186e+00
 9.657042591594368730e+00
 9.663538590949091400e+00
 9.670034590306645583e+00
 9.676530589661362924e+00
 9.683026589018602692e+00
 9.689522588379832158e+00
 9.696018587742422312e+00
 9.702514587104422716e+00
 9.709010586468377113e+00
 9.715506585833162845e+00
 9.722002585197875746e+00
 9.728498584568148644e+00
 9.734994583937476520e+00
 9.741490583310163487e+00
 9.747986582679285306e+00
 9.754482582051444695e+00
 9.760978581429268885e+00
 9.767474580805972195e+00
 9.773970580182480106e+00
 9.780466579561398532e+00
 9.786962578939201407e+00
 9.793458578321844854e+00
 9.799954577706429859e+00
 9.806450577089892207e+00
 9.812946576476331728e+00
 9.819442575860581002e+00
 </DataArray>
 <DataArray Name="pos.y" type="Float32" NumberOfComponents="1" format="ascii">
 4.840103933168554695e-02
 4.845410829188747520e-02
 4.850717725211129566e-02
 4.856024621233163974e-02
 4.861331517257863610e-02
 4.866638413282865089e-02
 4.871945309309571454e-02
 4.877252205336865543e-02
 4.882559101365198384e-02
 4.887865997396376866e-02
 4.893172893426122466e-02
 4.898479789459075223e-02
 4.903786685492044634e-02
 4.909093581525045963e-02
 4.914400477562334141e-02
 4.919707373598539851e-02
 4.925014269636711350e-02
 4.930321165674278472e-02
 4.935628061714162490e-02
 4.940934957756138585e-02
 4.946241853797861410e-02
 4.951548749840672253e-02
 4.956855645885428763e-02
 4.962162541929915349e-02
 4.967469437976990837e-02
 4.972776334024490291e-02
 4.978083230073061111e-02
 4.983390126122862890e-02
 4.988697022173225332e-02
 </DataArray>
 <DataArray Name="pos.z" type="Float32" NumberOfComponents="1" format="ascii">
 0.000000000000000000e+00
 0.000000000000000000e+00
 0.000000000000000000e+00
 0.000000000000000000e+00
 0.000000000000000000e+00
 0.000000000000000000e+00
 0.000000000000000000e+00
 0.000000000000000000e+00
 0.000000000000000000e+00
 0.000000000000000000e+00
 0.000000000000000000e+00
 0.000000000000000000e+00
 0.000000000000000000e+00
 0.000000000000000000e+00
 0.000000000000000000e+00
 0.000000000000000000e+00
 0.000000000000000000e+00
 0.000000000000000000e+00
 0.000000000000000000e+00
 0.000000000000000000e+00
 0.000000000000000000e+00
 0.000000000000000000e+00
 0.000000000000000000e+00
 0.000000000000000000e+00
 0.000000000000000000e+00
 0.000000000000000000e+00
 0.000000000000000000e+00
 0.000000000000000000e+00
 0.000000000000000000e+00
 </DataArray>
 <DataArray Name="volume" type="Float32" NumberOfComponents="1" format="ascii">
 3.043584357504356484e-05
 3.050262248068648992e-05
 3.056947456549436240e-05
 3.063639982939200980e-05
 3.070339827246311220e-05
 3.077046989466588039e-05
 3.083761469594970922e-05
 3.090483267641568022e-05
 3.097212383599636957e-05
 3.103948817470865695e-05
 3.110692569255251523e-05
 3.117443638951944022e-05
 3.124202026564354363e-05
 3.130967732086506559e-05
 3.137740755524383372e-05
 3.144521096874562790e-05
 3.151308756137901333e-05
 3.158103733314397644e-05
 3.164906028403187074e-05
 3.171715641406867641e-05
 3.178532572322841326e-05
 3.185356821151971425e-05
 3.192188387894260649e-05
 3.199027272548835536e-05
 3.205873475119193995e-05
 3.212726995600083743e-05
 3.219587833994127195e-05
 3.226455990303090922e-05
 3.233331464524332182e-05
 </DataArray>
 <DataArray Name="rho" type="Float32" NumberOfComponents="1" format="ascii">
 1.528855304762397147e-04
 1.528855304762397147e-04
 1.528855304762397147e-04
 1.528855304762397147e-04
 1.528855304762397147e-04
 1.528855304762397147e-04
 1.528855304762397147e-04
 1.528855304762397147e-04
 1.528855304762397147e-04
 1.528855304762397147e-04
 1.528855304762397147e-04
 1.528855304762397147e-04
 1.528855304762397147e-04
 1.528855304762397147e-04
 1.528855304762397147e-04
 1.528855304762397147e-04
 1.528855304762397147e-04
 1.528855304762397147e-04
 1.528855304762397147e-04
 1.528855304762397147e-04
 1.528855304762397147e-04
 1.528855304762397147e-04
 1.528855304762397147e-04
 1.528855304762397147e-04
 1.528855304762397147e-04
 1.528855304762397147e-04
 1.528855304762397147e-04
 1.528855304762397147e-04
 1.528855304762397147e-04
 </DataArray>
 <DataArray Name="vel.x" type="Float32" NumberOfComponents="1" format="ascii">
 3.852387834744007087e-14
 3.873682842510778667e-14
 1.102356646589291941e-13
 1.735903473750503640e-13
 1.353323677496606263e-13
 1.931998867518138085e-13
 1.930827720113575290e-13
 1.925578328805628689e-13
 1.931559743305809216e-13
 4.109714333421951409e-14
 1.729444225507876492e-13
 3.991249710101805235e-14
 3.879751510707489457e-14
 3.823534326801462997e-14
 -1.348579534926060241e-13
 -1.306549066826228149e-13
 -1.960275546091112713e-14
 3.948442831489217972e-14
 7.120592943404837369e-14
 1.914003099639859294e-14
 1.254724338401360860e-13
 2.120338597363610376e-13
 2.581681667327152528e-13
 2.890861569963465133e-13
 2.508827679817824817e-13
 2.120036858906427604e-13
 2.121191986490219326e-13
 1.929351522539466172e-13
 1.930676748856141338e-13
 </DataArray>
 <DataArray Name="vel.y" type="Float32" NumberOfComponents="1" format="ascii">
 -1.625836778721252955e-11
 7.163819549955256118e-12
 -2.203093295999668874e-11
 2.558566087415321177e-11
 -3.749903912263334097e-12
 1.012267738492535949e-11
 -4.431338816157565375e-12
 9.667858929954154073e-12
 2.854237416308616335e-11
 -3.952648445185756610e-11
 2.305660465064454695e-11
 -2.012467838314861206e-11
 -7.390133765675427511e-12
 6.054044802392866001e-11
 -3.172518188273162629e-11
 -1.262316238276102034e-11
 -3.740826410795790999e-11
 2.444660914539140450e-11
 2.521433728923714171e-11
 -2.400572019571846563e-11
 -5.114586979599586052e-12
 1.330663532327248909e-11
 -1.073467914971978567e-11
 3.286469010662701548e-11
 1.027330082728174049e-12
 2.164097813138432766e-12
 3.300758678252780126e-12
 -3.294358457986951885e-12
 1.489834219870409653e-11
 </DataArray>
 <DataArray Name="vel.z" type="Float32" NumberOfComponents="1" format="ascii">
 0.000000000000000000e+00
 0.000000000000000000e+00
 0.000000000000000000e+00
 0.000000000000000000e+00
 0.000000000000000000e+00
 0.000000000000000000e+00
 0.000000000000000000e+00
 0.000000000000000000e+00
 0.000000000000000000e+00
 0.000000000000000000e+00
 0.000000000000000000e+00
 0.000000000000000000e+00
 0.000000000000000000e+00
 0.000000000000000000e+00
 0.000000000000000000e+00
 0.000000000000000000e+00
 0.000000000000000000e+00
 0.000000000000000000e+00
 0.000000000000000000e+00
 0.000000000000000000e+00
 0.000000000000000000e+00
 0.000000000000000000e+00
 0.000000000000000000e+00
 0.000000000000000000e+00
 0.000000000000000000e+00
 0.000000000000000000e+00
 0.000000000000000000e+00
 0.000000000000000000e+00
 0.000000000000000000e+00
 </DataArray>
 <DataArray Name="p" type="Float32" NumberOfComponents="1" format="ascii">
 1.319999999999999929e+01
 1.319999999999999929e+01
 1.319999999999999929e+01
 1.319999999999999929e+01
 1.319999999999999929e+01
 1.319999999999999929e+01
 1.319999999999999929e+01
 1.319999999999999929e+01
 1.319999999999999929e+01
 1.319999999999999929e+01
 1.319999999999999929e+01
 1.319999999999999929e+01
 1.319999999999999929e+01
 1.319999999999999929e+01
 1.319999999999999929e+01
 1.319999999999999929e+01
 1.319999999999999929e+01
 1.319999999999999929e+01
 1.319999999999999929e+01
 1.319999999999999929e+01
 1.319999999999999929e+01
 1.319999999999999929e+01
 1.319999999999999929e+01
 1.319999999999999929e+01
 1.319999999999999929e+01
 1.319999999999999929e+01
 1.319999999999999929e+01
 1.319999999999999929e+01
 1.319999999999999929e+01
 </DataArray>
 <DataArray Name="a" type="Float32" NumberOfComponents="1" format="ascii">
 3.474749704973453390e+02
 3.474749704973453390e+02
 3.474749704973453390e+02
 3.474749704973453390e+02
 3.474749704973453390e+02
 3.474749704973453390e+02
 3.474749704973453390e+02
 3.474749704973453390e+02
 3.474749704973453390e+02
 3.474749704973453390e+02
 3.474749704973453390e+02
 3.474749704973453390e+02
 3.474749704973453390e+02
 3.474749704973453390e+02
 3.474749704973453390e+02
 3.474749704973453390e+02
 3.474749704973453390e+02
 3.474749704973453390e+02
 3.474749704973453390e+02
 3.474749704973453390e+02
 3.474749704973453390e+02
 3.474749704973453390e+02
 3.474749704973453390e+02
 3.474749704973453390e+02
 3.474749704973453390e+02
 3.474749704973453390e+02
 3.474749704973453390e+02
 3.474749704973453390e+02
 3.474749704973453390e+02
 </DataArray>
 <DataArray Name="mu" type="Float32" NumberOfComponents="1" format="ascii">
 1.853126952258717352e-05
 1.853126952258717352e-05
 1.853126952258717352e-05
 1.853126952258717352e-05
 1.853126952258717352e-05
 1.853126952258717352e-05
 1.853126952258717352e-05
 1.853126952258717352e-05
 1.853126952258717352e-05
 1.853126952258717352e-05
 1.853126952258717352e-05
 1.853126952258717352e-05
 1.853126952258717352e-05
 1.853126952258717352e-05
 1.853126952258717352e-05
 1.853126952258717352e-05
 1.853126952258717352e-05
 1.853126952258717352e-05
 1.853126952258717352e-05
 1.853126952258717352e-05
 1.853126952258717352e-05
 1.853126952258717352e-05
 1.853126952258717352e-05
 1.853126952258717352e-05
 1.853126952258717352e-05
 1.853126952258717352e-05
 1.853126952258717352e-05
 1.853126952258717352e-05
 1.853126952258717352e-05
 </DataArray>
 <DataArray Name="k" type="Float32" NumberOfComponents="1" format="ascii">
 2.626199291280435430e-02
 2.626199291280435430e-02
 2.626199291280435430e-02
 2.626199291280435430e-02
 2.626199291280435430e-02
 2.626199291280435430e-02
 2.626199291280435430e-02
 2.626199291280435430e-02
 2.626199291280435430e-02
 2.626199291280435430e-02
 2.626199291280435430e-02
 2.626199291280435430e-02
 2.626199291280435430e-02
 2.626199291280435430e-02
 2.626199291280435430e-02
 2.626199291280435430e-02
 2.626199291280435430e-02
 2.626199291280435430e-02
 2.626199291280435430e-02
 2.626199291280435430e-02
 2.626199291280435430e-02
 2.626199291280435430e-02
 2.626199291280435430e-02
 2.626199291280435430e-02
 2.626199291280435430e-02
 2.626199291280435430e-02
 2.626199291280435430e-02
 2.626199291280435430e-02
 2.626199291280435430e-02
 </DataArray>
 <DataArray Name="mu_t" type="Float32" NumberOfComponents="1" format="ascii">
 0.000000000000000000e+00
 0.000000000000000000e+00
 0.000000000000000000e+00
 0.000000000000000000e+00
 0.000000000000000000e+00
 0.000000000000000000e+00
 0.000000000000000000e+00
 0.000000000000000000e+00
 0.000000000000000000e+00
 0.000000000000000000e+00
 0.000000000000000000e+00
 0.000000000000000000e+00
 0.000000000000000000e+00
 0.000000000000000000e+00
 0.000000000000000000e+00
 0.000000000000000000e+00
 0.000000000000000000e+00
 0.000000000000000000e+00
 0.000000000000000000e+00
 0.000000000000000000e+00
 0.000000000000000000e+00
 0.000000000000000000e+00
 0.000000000000000000e+00
 0.000000000000000000e+00
 0.000000000000000000e+00
 0.000000000000000000e+00
 0.000000000000000000e+00
 0.000000000000000000e+00
 0.000000000000000000e+00
 </DataArray>
 <DataArray Name="k_t" type="Float32" NumberOfComponents="1" format="ascii">
 0.000000000000000000e+00
 0.000000000000000000e+00
 0.000000000000000000e+00
 0.000000000000000000e+00
 0.000000000000000000e+00
 0.000000000000000000e+00
 0.000000000000000000e+00
 0.000000000000000000e+00
 0.000000000000000000e+00
 0.000000000000000000e+00
 0.000000000000000000e+00
 0.000000000000000000e+00
 0.000000000000000000e+00
 0.000000000000000000e+00
 0.000000000000000000e+00
 0.000000000000000000e+00
 0.000000000000000000e+00
 0.000000000000000000e+00
 0.000000000000000000e+00
 0.000000000000000000e+00
 0.000000000000000000e+00
 0.000000000000000000e+00
 0.000000000000000000e+00
 0.000000000000000000e+00
 0.000000000000000000e+00
 0.000000000000000000e+00
 0.000000000000000000e+00
 0.000000000000000000e+00
 0.000000000000000000e+00
 </DataArray>
 <DataArray Name="S" type="Float32" NumberOfComponents="1" format="ascii">
 0.000000000000000000e+00
 0.000000000000000000e+00
 0.000000000000000000e+00
 0.000000000000000000e+00
 0.000000000000000000e+00
 0.000000000000000000e+00
 0.000000000000000000e+00
 0.000000000000000000e+00
 0.000000000000000000e+00
 0.000000000000000000e+00
 0.000000000000000000e+00
 0.000000000000000000e+00
 0.000000000000000000e+00
 0.000000000000000000e+00
 0.000000000000000000e+00
 0.000000000000000000e+00
 0.000000000000000000e+00
 0.000000000000000000e+00
 0.000000000000000000e+00
 0.000000000000000000e+00
 0.000000000000000000e+00
 0.000000000000000000e+00
 0.000000000000000000e+00
 0.000000000000000000e+00
 0.000000000000000000e+00
 0.000000000000000000e+00
 0.000000000000000000e+00
 0.000000000000000000e+00
 0.000000000000000000e+00
 </DataArray>
 <DataArray Name="massf[0]-Ar" type="Float32" NumberOfComponents="1" format="ascii">
 0.000000000000000000e+00
 0.000000000000000000e+00
 0.000000000000000000e+00
 0.000000000000000000e+00
 0.000000000000000000e+00
 0.000000000000000000e+00
 0.000000000000000000e+00
 0.000000000000000000e+00
 0.000000000000000000e+00
 0.000000000000000000e+00
 0.000000000000000000e+00
 0.000000000000000000e+00
 0.000000000000000000e+00
 0.000000000000000000e+00
 0.000000000000000000e+00
 0.000000000000000000e+00
 0.000000000000000000e+00
 0.000000000000000000e+00
 0.000000000000000000e+00
 0.000000000000000000e+00
 0.000000000000000000e+00
 0.000000000000000000e+00
 0.000000000000000000e+00
 0.000000000000000000e+00
 0.000000000000000000e+00
 0.000000000000000000e+00
 0.000000000000000000e+00
 0.000000000000000000e+00
 0.000000000000000000e+00
 </DataArray>
 <DataArray Name="massf[1]-He" type="Float32" NumberOfComponents="1" format="ascii">
 0.000000000000000000e+00
 0.000000000000000000e+00
 0.000000000000000000e+00
 0.000000000000000000e+00
 0.000000000000000000e+00
 0.000000000000000000e+00
 0.000000000000000000e+00
 0.000000000000000000e+00
 0.000000000000000000e+00
 0.000000000000000000e+00
 0.000000000000000000e+00
 0.000000000000000000e+00
 0.000000000000000000e+00
 0.000000000000000000e+00
 0.000000000000000000e+00
 0.000000000000000000e+00
 0.000000000000000000e+00
 0.000000000000000000e+00
 0.000000000000000000e+00
 0.000000000000000000e+00
 0.000000000000000000e+00
 0.000000000000000000e+00
 0.000000000000000000e+00
 0.000000000000000000e+00
 0.000000000000000000e+00
 0.000000000000000000e+00
 0.000000000000000000e+00
 0.000000000000000000e+00
 0.000000000000000000e+00
 </DataArray>
 <DataArray Name="massf[2]-N" type="Float32" NumberOfComponents="1" format="ascii">
 0.000000000000000000e+00
 0.000000000000000000e+00
 0.000000000000000000e+00
 0.000000000000000000e+00
 0.000000000000000000e+00
 0.000000000000000000e+00
 0.000000000000000000e+00
 0.000000000000000000e+00
 0.000000000000000000e+00
 0.000000000000000000e+00
 0.000000000000000000e+00
 0.000000000000000000e+00
 0.000000000000000000e+00
 0.000000000000000000e+00
 0.000000000000000000e+00
 0.000000000000000000e+00
 0.000000000000000000e+00
 0.000000000000000000e+00
 0.000000000000000000e+00
 0.000000000000000000e+00
 0.000000000000000000e+00
 0.000000000000000000e+00
 0.000000000000000000e+00
 0.000000000000000000e+00
 0.000000000000000000e+00
 0.000000000000000000e+00
 0.000000000000000000e+00
 0.000000000000000000e+00
 0.000000000000000000e+00
 </DataArray>
 <DataArray Name="massf[3]-N2" type="Float32" NumberOfComponents="1" format="ascii">
 7.563277885211407980e-01
 7.563277885211407980e-01
 7.563277885211407980e-01
 7.563277885211407980e-01
 7.563277885211407980e-01
 7.563277885211407980e-01
 7.563277885211407980e-01
 7.563277885211407980e-01
 7.563277885211407980e-01
 7.563277885211407980e-01
 7.563277885211407980e-01
 7.563277885211407980e-01
 7.563277885211407980e-01
 7.563277885211407980e-01
 7.563277885211407980e-01
 7.563277885211407980e-01
 7.563277885211407980e-01
 7.563277885211407980e-01
 7.563277885211407980e-01
 7.563277885211407980e-01
 7.563277885211407980e-01
 7.563277885211407980e-01
 7.563277885211407980e-01
 7.563277885211407980e-01
 7.563277885211407980e-01
 7.563277885211407980e-01
 7.563277885211407980e-01
 7.563277885211407980e-01
 7.563277885211407980e-01
 </DataArray>
 <DataArray Name="massf[4]-NO" type="Float32" NumberOfComponents="1" format="ascii">
 0.000000000000000000e+00
 0.000000000000000000e+00
 0.000000000000000000e+00
 0.000000000000000000e+00
 0.000000000000000000e+00
 0.000000000000000000e+00
 0.000000000000000000e+00
 0.000000000000000000e+00
 0.000000000000000000e+00
 0.000000000000000000e+00
 0.000000000000000000e+00
 0.000000000000000000e+00
 0.000000000000000000e+00
 0.000000000000000000e+00
 0.000000000000000000e+00
 0.000000000000000000e+00
 0.000000000000000000e+00
 0.000000000000000000e+00
 0.000000000000000000e+00
 0.000000000000000000e+00
 0.000000000000000000e+00
 0.000000000000000000e+00
 0.000000000000000000e+00
 0.000000000000000000e+00
 0.000000000000000000e+00
 0.000000000000000000e+00
 0.000000000000000000e+00
 0.000000000000000000e+00
 0.000000000000000000e+00
 </DataArray>
 <DataArray Name="massf[5]-O" type="Float32" NumberOfComponents="1" format="ascii">
 0.000000000000000000e+00
 0.000000000000000000e+00
 0.000000000000000000e+00
 0.000000000000000000e+00
 0.000000000000000000e+00
 0.000000000000000000e+00
 0.000000000000000000e+00
 0.000000000000000000e+00
 0.000000000000000000e+00
 0.000000000000000000e+00
 0.000000000000000000e+00
 0.000000000000000000e+00
 0.000000000000000000e+00
 0.000000000000000000e+00
 0.000000000000000000e+00
 0.000000000000000000e+00
 0.000000000000000000e+00
 0.000000000000000000e+00
 0.000000000000000000e+00
 0.000000000000000000e+00
 0.000000000000000000e+00
 0.000000000000000000e+00
 0.000000000000000000e+00
 0.000000000000000000e+00
 0.000000000000000000e+00
 0.000000000000000000e+00
 0.000000000000000000e+00
 0.000000000000000000e+00
 0.000000000000000000e+00
 </DataArray>
 <DataArray Name="massf[6]-O2" type="Float32" NumberOfComponents="1" format="ascii">
 2.436722114788592020e-01
 2.436722114788592020e-01
 2.436722114788592020e-01
 2.436722114788592020e-01
 2.436722114788592020e-01
 2.436722114788592020e-01
 2.436722114788592020e-01
 2.436722114788592020e-01
 2.436722114788592020e-01
 2.436722114788592020e-01
 2.436722114788592020e-01
 2.436722114788592020e-01
 2.436722114788592020e-01
 2.436722114788592020e-01
 2.436722114788592020e-01
 2.436722114788592020e-01
 2.436722114788592020e-01
 2.436722114788592020e-01
 2.436722114788592020e-01
 2.436722114788592020e-01
 2.436722114788592020e-01
 2.436722114788592020e-01
 2.436722114788592020e-01
 2.436722114788592020e-01
 2.436722114788592020e-01
 2.436722114788592020e-01
 2.436722114788592020e-01
 2.436722114788592020e-01
 2.436722114788592020e-01
 </DataArray>
 <DataArray Name="dt_chem" type="Float32" NumberOfComponents="1" format="ascii">
 -1.000000000000000000e+00
 -1.000000000000000000e+00
 -1.000000000000000000e+00
 -1.000000000000000000e+00
 -1.000000000000000000e+00
 -1.000000000000000000e+00
 -1.000000000000000000e+00
 -1.000000000000000000e+00
 -1.000000000000000000e+00
 -1.000000000000000000e+00
 -1.000000000000000000e+00
 -1.000000000000000000e+00
 -1.000000000000000000e+00
 -1.000000000000000000e+00
 -1.000000000000000000e+00
 -1.000000000000000000e+00
 -1.000000000000000000e+00
 -1.000000000000000000e+00
 -1.000000000000000000e+00
 -1.000000000000000000e+00
 -1.000000000000000000e+00
 -1.000000000000000000e+00
 -1.000000000000000000e+00
 -1.000000000000000000e+00
 -1.000000000000000000e+00
 -1.000000000000000000e+00
 -1.000000000000000000e+00
 -1.000000000000000000e+00
 -1.000000000000000000e+00
 </DataArray>
 <DataArray Name="u" type="Float32" NumberOfComponents="1" format="ascii">
 -8.447044764501467580e+04
 -8.447044764501467580e+04
 -8.447044764501467580e+04
 -8.447044764501467580e+04
 -8.447044764501467580e+04
 -8.447044764501467580e+04
 -8.447044764501467580e+04
 -8.447044764501467580e+04
 -8.447044764501467580e+04
 -8.447044764501467580e+04
 -8.447044764501467580e+04
 -8.447044764501467580e+04
 -8.447044764501467580e+04
 -8.447044764501467580e+04
 -8.447044764501467580e+04
 -8.447044764501467580e+04
 -8.447044764501467580e+04
 -8.447044764501467580e+04
 -8.447044764501467580e+04
 -8.447044764501467580e+04
 -8.447044764501467580e+04
 -8.447044764501467580e+04
 -8.447044764501467580e+04
 -8.447044764501467580e+04
 -8.447044764501467580e+04
 -8.447044764501467580e+04
 -8.447044764501467580e+04
 -8.447044764501467580e+04
 -8.447044764501467580e+04
 </DataArray>
 <DataArray Name="T" type="Float32" NumberOfComponents="1" format="ascii">
 3.000000000000000000e+02
 3.000000000000000000e+02
 3.000000000000000000e+02
 3.000000000000000000e+02
 3.000000000000000000e+02
 3.000000000000000000e+02
 3.000000000000000000e+02
 3.000000000000000000e+02
 3.000000000000000000e+02
 3.000000000000000000e+02
 3.000000000000000000e+02
 3.000000000000000000e+02
 3.000000000000000000e+02
 3.000000000000000000e+02
 3.000000000000000000e+02
 3.000000000000000000e+02
 3.000000000000000000e+02
 3.000000000000000000e+02
 3.000000000000000000e+02
 3.000000000000000000e+02
 3.000000000000000000e+02
 3.000000000000000000e+02
 3.000000000000000000e+02
 3.000000000000000000e+02
 3.000000000000000000e+02
 3.000000000000000000e+02
 3.000000000000000000e+02
 3.000000000000000000e+02
 3.000000000000000000e+02
 </DataArray>
 <DataArray Name="vel.vector" type="Float32" NumberOfComponents="3" format="ascii">
 3.852387836901852158e-14 -1.625836791585566488e-11 0.000000000000000000e+00
 3.873682922822183072e-14 7.163819450844988168e-12 0.000000000000000000e+00
 1.102356663525323743e-13 -2.203093263375421884e-11 0.000000000000000000e+00
 1.735903494516286005e-13 2.558566032651032884e-11 0.000000000000000000e+00
 1.353323648891485709e-13 -3.749904033123474534e-12 0.000000000000000000e+00
 1.931998804645049250e-13 1.012267700217783784e-11 0.000000000000000000e+00
 1.930827730773493345e-13 -4.431338976318421885e-12 0.000000000000000000e+00
 1.925578294904861654e-13 9.667858527628858667e-12 0.000000000000000000e+00
 1.931559702765192621e-13 2.854237332594600218e-11 0.000000000000000000e+00
 4.109714413398635191e-14 -3.952648278127135484e-11 0.000000000000000000e+00
 1.729444224548432052e-13 2.305660523616026580e-11 0.000000000000000000e+00
 3.991249740648364353e-14 -2.012467796574934908e-11 0.000000000000000000e+00
 3.879751405669491782e-14 -7.390133643925267393e-12 0.000000000000000000e+00
 3.823534167773402770e-14 6.054044765502197833e-11 0.000000000000000000e+00
 -1.348579586760503823e-13 -3.172518150962311267e-11 0.000000000000000000e+00
 -1.306549134291387637e-13 -1.262316206424030085e-11 0.000000000000000000e+00
 -1.960275474929829009e-14 -3.740826398646035500e-11 0.000000000000000000e+00
 3.948442728373205424e-14 2.444660966716138972e-11 0.000000000000000000e+00
 7.120592635488642852e-14 2.521433756230706535e-11 0.000000000000000000e+00
 1.914003081460863287e-14 -2.400572102212450432e-11 0.000000000000000000e+00
 1.254724405971852086e-13 -5.114587139226633994e-12 0.000000000000000000e+00
 2.120338545583480561e-13 1.330663530751952095e-11 0.000000000000000000e+00
 2.581681613281205934e-13 -1.073467877088507549e-11 0.000000000000000000e+00
 2.890861649455095383e-13 3.286469013596970967e-11 0.000000000000000000e+00
 2.508827564098869978e-13 1.027330130687342802e-12 0.000000000000000000e+00
 2.120036866328986469e-13 2.164097893941896444e-12 0.000000000000000000e+00
 2.121191948218498213e-13 3.300758754862243016e-12 0.000000000000000000e+00
 1.929351589515654330e-13 -3.294358492597626586e-12 0.000000000000000000e+00
 1.930676755620974738e-13 1.489834297596637214e-11 0.000000000000000000e+00
 </DataArray>
</CellData>
</Piece>
</UnstructuredGrid>
</VTKFile>
