<VTKFile type="UnstructuredGrid" byte_order="BigEndian">
<UnstructuredGrid><Piece NumberOfPoints="46" NumberOfCells="22">
<Points>
 <DataArray type="Float32" NumberOfComponents="3" format="ascii">
 9.338763236999511719e+00 0.000000000000000000e+00 0.000000000000000000e+00
 9.345194816589355469e+00 0.000000000000000000e+00 0.000000000000000000e+00
 9.351626396179199219e+00 0.000000000000000000e+00 0.000000000000000000e+00
 9.358057975769042969e+00 0.000000000000000000e+00 0.000000000000000000e+00
 9.364489555358886719e+00 0.000000000000000000e+00 0.000000000000000000e+00
 9.370922088623046875e+00 0.000000000000000000e+00 0.000000000000000000e+00
 9.377353668212890625e+00 0.000000000000000000e+00 0.000000000000000000e+00
 9.383785247802734375e+00 0.000000000000000000e+00 0.000000000000000000e+00
 9.390216827392578125e+00 0.000000000000000000e+00 0.000000000000000000e+00
 9.396648406982421875e+00 0.000000000000000000e+00 0.000000000000000000e+00
 9.403079986572265625e+00 0.000000000000000000e+00 0.000000000000000000e+00
 9.409511566162109375e+00 0.000000000000000000e+00 0.000000000000000000e+00
 9.415944099426269531e+00 0.000000000000000000e+00 0.000000000000000000e+00
 9.422375679016113281e+00 0.000000000000000000e+00 0.000000000000000000e+00
 9.428807258605957031e+00 0.000000000000000000e+00 0.000000000000000000e+00
 9.435238838195800781e+00 0.000000000000000000e+00 0.000000000000000000e+00
 9.441670417785644531e+00 0.000000000000000000e+00 0.000000000000000000e+00
 9.448101997375488281e+00 0.000000000000000000e+00 0.000000000000000000e+00
 9.454534530639648438e+00 0.000000000000000000e+00 0.000000000000000000e+00
 9.460966110229492188e+00 0.000000000000000000e+00 0.000000000000000000e+00
 9.467397689819335938e+00 0.000000000000000000e+00 0.000000000000000000e+00
 9.473829269409179688e+00 0.000000000000000000e+00 0.000000000000000000e+00
 9.480260848999023438e+00 0.000000000000000000e+00 0.000000000000000000e+00
 9.338763236999511719e+00 8.570499718189239502e-02 0.000000000000000000e+00
 9.345194816589355469e+00 8.598458766937255859e-02 0.000000000000000000e+00
 9.351626396179199219e+00 8.626417815685272217e-02 0.000000000000000000e+00
 9.358057975769042969e+00 8.654377609491348267e-02 0.000000000000000000e+00
 9.364489555358886719e+00 8.682336658239364624e-02 0.000000000000000000e+00
 9.370922088623046875e+00 8.710295706987380981e-02 0.000000000000000000e+00
 9.377353668212890625e+00 8.738254755735397339e-02 0.000000000000000000e+00
 9.383785247802734375e+00 8.766213804483413696e-02 0.000000000000000000e+00
 9.390216827392578125e+00 8.794172853231430054e-02 0.000000000000000000e+00
 9.396648406982421875e+00 8.822131901979446411e-02 0.000000000000000000e+00
 9.403079986572265625e+00 8.850090950727462769e-02 0.000000000000000000e+00
 9.409511566162109375e+00 8.878049999475479126e-02 0.000000000000000000e+00
 9.415944099426269531e+00 8.906009048223495483e-02 0.000000000000000000e+00
 9.422375679016113281e+00 8.933968096971511841e-02 0.000000000000000000e+00
 9.428807258605957031e+00 8.961927145719528198e-02 0.000000000000000000e+00
 9.435238838195800781e+00 8.989886194467544556e-02 0.000000000000000000e+00
 9.441670417785644531e+00 9.017845243215560913e-02 0.000000000000000000e+00
 9.448101997375488281e+00 9.045804291963577271e-02 0.000000000000000000e+00
 9.454534530639648438e+00 9.073763340711593628e-02 0.000000000000000000e+00
 9.460966110229492188e+00 9.101722389459609985e-02 0.000000000000000000e+00
 9.467397689819335938e+00 9.129682183265686035e-02 0.000000000000000000e+00
 9.473829269409179688e+00 9.157641232013702393e-02 0.000000000000000000e+00
 9.480260848999023438e+00 9.185600280761718750e-02 0.000000000000000000e+00
 </DataArray>
</Points>
<Cells>
 <DataArray type="Int32" Name="connectivity" format="ascii">
 0 1 24 23
 1 2 25 24
 2 3 26 25
 3 4 27 26
 4 5 28 27
 5 6 29 28
 6 7 30 29
 7 8 31 30
 8 9 32 31
 9 10 33 32
 10 11 34 33
 11 12 35 34
 12 13 36 35
 13 14 37 36
 14 15 38 37
 15 16 39 38
 16 17 40 39
 17 18 41 40
 18 19 42 41
 19 20 43 42
 20 21 44 43
 21 22 45 44
 </DataArray>
 <DataArray type="Int32" Name="offsets" format="ascii">
 4
 8
 12
 16
 20
 24
 28
 32
 36
 40
 44
 48
 52
 56
 60
 64
 68
 72
 76
 80
 84
 88
 </DataArray>
 <DataArray type="UInt8" Name="types" format="ascii">
 9
 9
 9
 9
 9
 9
 9
 9
 9
 9
 9
 9
 9
 9
 9
 9
 9
 9
 9
 9
 9
 9
 </DataArray>
</Cells>
<CellData>
 <DataArray Name="pos.x" type="Float32" NumberOfComponents="1" format="ascii">
 9.341980609278625280e+00
 9.348412330886247901e+00
 9.354844052527459652e+00
 9.361275774206417211e+00
 9.367707495921241190e+00
 9.374139217672000868e+00
 9.380570939456683632e+00
 9.387002661277152882e+00
 9.393434383132637677e+00
 9.399866105022756102e+00
 9.406297826943077922e+00
 9.412729548903129739e+00
 9.419161270892699278e+00
 9.425592992914422652e+00
 9.432024714974323487e+00
 9.438456437062917814e+00
 9.444888159180882425e+00
 9.451319881335601636e+00
 9.457751603516838301e+00
 9.464183325733760199e+00
 9.470615047978769852e+00
 9.477046770256096764e+00
 </DataArray>
 <DataArray Name="pos.y" type="Float32" NumberOfComponents="1" format="ascii">
 4.292243566932562454e-02
 4.306223100070729476e-02
 4.320202633286545496e-02
 4.334182166583295387e-02
 4.348161699956754750e-02
 4.362141233408629165e-02
 4.376120766936362344e-02
 4.390100300540383804e-02
 4.404079834220153006e-02
 4.418059367973935225e-02
 4.432038901800817304e-02
 4.446018435702035754e-02
 4.459997969675188328e-02
 4.473977503720216742e-02
 4.487957037837069646e-02
 4.501936572023586963e-02
 4.515916106279380809e-02
 4.529895640604292284e-02
 4.543875174998076444e-02
 4.557854709460185810e-02
 4.571834243989585100e-02
 4.585813778583742312e-02
 </DataArray>
 <DataArray Name="pos.z" type="Float32" NumberOfComponents="1" format="ascii">
 0.000000000000000000e+00
 0.000000000000000000e+00
 0.000000000000000000e+00
 0.000000000000000000e+00
 0.000000000000000000e+00
 0.000000000000000000e+00
 0.000000000000000000e+00
 0.000000000000000000e+00
 0.000000000000000000e+00
 0.000000000000000000e+00
 0.000000000000000000e+00
 0.000000000000000000e+00
 0.000000000000000000e+00
 0.000000000000000000e+00
 0.000000000000000000e+00
 0.000000000000000000e+00
 0.000000000000000000e+00
 0.000000000000000000e+00
 0.000000000000000000e+00
 0.000000000000000000e+00
 0.000000000000000000e+00
 0.000000000000000000e+00
 </DataArray>
 <DataArray Name="volume" type="Float32" NumberOfComponents="1" format="ascii">
 2.369877780420775554e-05
 2.385339980763309615e-05
 2.400852458609602962e-05
 2.416415213964316646e-05
 2.432028246818793992e-05
 2.447691557183085553e-05
 2.463405145045047926e-05
 2.479169010415507886e-05
 2.494983153289717645e-05
 2.510847573669053800e-05
 2.526762271551435021e-05
 2.542727246938941623e-05
 2.558742499831586479e-05
 2.574808030227249635e-05
 2.590923838128766620e-05
 2.607089923533284287e-05
 2.623306286442949356e-05
 2.639572926857045916e-05
 2.655889844776308513e-05
 2.672257040199274491e-05
 2.688674513125186263e-05
 2.705142263558499901e-05
 </DataArray>
 <DataArray Name="rho" type="Float32" NumberOfComponents="1" format="ascii">
 1.528855304762397147e-04
 1.528855304762397147e-04
 1.528855304762397147e-04
 1.528855304762397147e-04
 1.528855304762397147e-04
 1.528855304762397147e-04
 1.528855304762397147e-04
 1.528855304762397147e-04
 1.528855304762397147e-04
 1.528855304762397147e-04
 1.528855304762397147e-04
 1.528855304762397147e-04
 1.528855304762397147e-04
 1.528855304762397147e-04
 1.528855304762397147e-04
 1.528855304762397147e-04
 1.528855304762397147e-04
 1.528855304762397147e-04
 1.528855304762397147e-04
 1.528855304762397147e-04
 1.528855304762397147e-04
 1.528855304762397147e-04
 </DataArray>
 <DataArray Name="vel.x" type="Float32" NumberOfComponents="1" format="ascii">
 2.711596836212944700e-14
 -2.153160375901857102e-14
 3.810110849993504425e-14
 -2.579096066443181148e-14
 -1.913007549185745845e-14
 9.560353794686242546e-15
 5.199623641932837493e-14
 4.711956108017340644e-14
 2.026975848907810808e-14
 2.072025218753551905e-14
 1.050855033439311546e-13
 4.340235816731909705e-14
 4.119845953381962840e-14
 4.742550557647716591e-15
 -5.962415688514730980e-14
 -1.249541459871996385e-13
 -3.877919980454592649e-14
 -1.934883908643266688e-14
 -2.975643754376203827e-14
 -7.957104326054187835e-14
 -5.231534798219664901e-14
 5.800712097118850691e-14
 </DataArray>
 <DataArray Name="vel.y" type="Float32" NumberOfComponents="1" format="ascii">
 1.082103551477212695e-11
 -1.116355935982412987e-11
 1.275706190785996394e-11
 -7.331489876291891552e-12
 5.002595863462482949e-12
 -4.262584362507723609e-12
 4.515925100005514931e-12
 6.059305351277790582e-12
 -3.493805341989930072e-12
 -2.152726680063245994e-12
 1.422307179920188999e-11
 4.810873584525516404e-12
 5.821582321186659055e-12
 4.205044292604190746e-12
 -1.277010320442077925e-11
 -1.409075478474754505e-11
 -5.493268963040842718e-12
 3.062036901963388283e-12
 3.581009476141528234e-12
 -5.472888823255554693e-12
 -1.566752516151102966e-11
 1.107406873957231883e-11
 </DataArray>
 <DataArray Name="vel.z" type="Float32" NumberOfComponents="1" format="ascii">
 0.000000000000000000e+00
 0.000000000000000000e+00
 0.000000000000000000e+00
 0.000000000000000000e+00
 0.000000000000000000e+00
 0.000000000000000000e+00
 0.000000000000000000e+00
 0.000000000000000000e+00
 0.000000000000000000e+00
 0.000000000000000000e+00
 0.000000000000000000e+00
 0.000000000000000000e+00
 0.000000000000000000e+00
 0.000000000000000000e+00
 0.000000000000000000e+00
 0.000000000000000000e+00
 0.000000000000000000e+00
 0.000000000000000000e+00
 0.000000000000000000e+00
 0.000000000000000000e+00
 0.000000000000000000e+00
 0.000000000000000000e+00
 </DataArray>
 <DataArray Name="p" type="Float32" NumberOfComponents="1" format="ascii">
 1.319999999999999929e+01
 1.319999999999999929e+01
 1.319999999999999929e+01
 1.319999999999999929e+01
 1.319999999999999929e+01
 1.319999999999999929e+01
 1.319999999999999929e+01
 1.319999999999999929e+01
 1.319999999999999929e+01
 1.319999999999999929e+01
 1.319999999999999929e+01
 1.319999999999999929e+01
 1.319999999999999929e+01
 1.319999999999999929e+01
 1.319999999999999929e+01
 1.319999999999999929e+01
 1.319999999999999929e+01
 1.319999999999999929e+01
 1.319999999999999929e+01
 1.319999999999999929e+01
 1.319999999999999929e+01
 1.319999999999999929e+01
 </DataArray>
 <DataArray Name="a" type="Float32" NumberOfComponents="1" format="ascii">
 3.474749704973453390e+02
 3.474749704973453390e+02
 3.474749704973453390e+02
 3.474749704973453390e+02
 3.474749704973453390e+02
 3.474749704973453390e+02
 3.474749704973453390e+02
 3.474749704973453390e+02
 3.474749704973453390e+02
 3.474749704973453390e+02
 3.474749704973453390e+02
 3.474749704973453390e+02
 3.474749704973453390e+02
 3.474749704973453390e+02
 3.474749704973453390e+02
 3.474749704973453390e+02
 3.474749704973453390e+02
 3.474749704973453390e+02
 3.474749704973453390e+02
 3.474749704973453390e+02
 3.474749704973453390e+02
 3.474749704973453390e+02
 </DataArray>
 <DataArray Name="mu" type="Float32" NumberOfComponents="1" format="ascii">
 1.853126952258717352e-05
 1.853126952258717352e-05
 1.853126952258717352e-05
 1.853126952258717352e-05
 1.853126952258717352e-05
 1.853126952258717352e-05
 1.853126952258717352e-05
 1.853126952258717352e-05
 1.853126952258717352e-05
 1.853126952258717352e-05
 1.853126952258717352e-05
 1.853126952258717352e-05
 1.853126952258717352e-05
 1.853126952258717352e-05
 1.853126952258717352e-05
 1.853126952258717352e-05
 1.853126952258717352e-05
 1.853126952258717352e-05
 1.853126952258717352e-05
 1.853126952258717352e-05
 1.853126952258717352e-05
 1.853126952258717352e-05
 </DataArray>
 <DataArray Name="k" type="Float32" NumberOfComponents="1" format="ascii">
 2.626199291280435430e-02
 2.626199291280435430e-02
 2.626199291280435430e-02
 2.626199291280435430e-02
 2.626199291280435430e-02
 2.626199291280435430e-02
 2.626199291280435430e-02
 2.626199291280435430e-02
 2.626199291280435430e-02
 2.626199291280435430e-02
 2.626199291280435430e-02
 2.626199291280435430e-02
 2.626199291280435430e-02
 2.626199291280435430e-02
 2.626199291280435430e-02
 2.626199291280435430e-02
 2.626199291280435430e-02
 2.626199291280435430e-02
 2.626199291280435430e-02
 2.626199291280435430e-02
 2.626199291280435430e-02
 2.626199291280435430e-02
 </DataArray>
 <DataArray Name="mu_t" type="Float32" NumberOfComponents="1" format="ascii">
 0.000000000000000000e+00
 0.000000000000000000e+00
 0.000000000000000000e+00
 0.000000000000000000e+00
 0.000000000000000000e+00
 0.000000000000000000e+00
 0.000000000000000000e+00
 0.000000000000000000e+00
 0.000000000000000000e+00
 0.000000000000000000e+00
 0.000000000000000000e+00
 0.000000000000000000e+00
 0.000000000000000000e+00
 0.000000000000000000e+00
 0.000000000000000000e+00
 0.000000000000000000e+00
 0.000000000000000000e+00
 0.000000000000000000e+00
 0.000000000000000000e+00
 0.000000000000000000e+00
 0.000000000000000000e+00
 0.000000000000000000e+00
 </DataArray>
 <DataArray Name="k_t" type="Float32" NumberOfComponents="1" format="ascii">
 0.000000000000000000e+00
 0.000000000000000000e+00
 0.000000000000000000e+00
 0.000000000000000000e+00
 0.000000000000000000e+00
 0.000000000000000000e+00
 0.000000000000000000e+00
 0.000000000000000000e+00
 0.000000000000000000e+00
 0.000000000000000000e+00
 0.000000000000000000e+00
 0.000000000000000000e+00
 0.000000000000000000e+00
 0.000000000000000000e+00
 0.000000000000000000e+00
 0.000000000000000000e+00
 0.000000000000000000e+00
 0.000000000000000000e+00
 0.000000000000000000e+00
 0.000000000000000000e+00
 0.000000000000000000e+00
 0.000000000000000000e+00
 </DataArray>
 <DataArray Name="S" type="Float32" NumberOfComponents="1" format="ascii">
 0.000000000000000000e+00
 0.000000000000000000e+00
 0.000000000000000000e+00
 0.000000000000000000e+00
 0.000000000000000000e+00
 0.000000000000000000e+00
 0.000000000000000000e+00
 0.000000000000000000e+00
 0.000000000000000000e+00
 0.000000000000000000e+00
 0.000000000000000000e+00
 0.000000000000000000e+00
 0.000000000000000000e+00
 0.000000000000000000e+00
 0.000000000000000000e+00
 0.000000000000000000e+00
 0.000000000000000000e+00
 0.000000000000000000e+00
 0.000000000000000000e+00
 0.000000000000000000e+00
 0.000000000000000000e+00
 0.000000000000000000e+00
 </DataArray>
 <DataArray Name="massf[0]-Ar" type="Float32" NumberOfComponents="1" format="ascii">
 0.000000000000000000e+00
 0.000000000000000000e+00
 0.000000000000000000e+00
 0.000000000000000000e+00
 0.000000000000000000e+00
 0.000000000000000000e+00
 0.000000000000000000e+00
 0.000000000000000000e+00
 0.000000000000000000e+00
 0.000000000000000000e+00
 0.000000000000000000e+00
 0.000000000000000000e+00
 0.000000000000000000e+00
 0.000000000000000000e+00
 0.000000000000000000e+00
 0.000000000000000000e+00
 0.000000000000000000e+00
 0.000000000000000000e+00
 0.000000000000000000e+00
 0.000000000000000000e+00
 0.000000000000000000e+00
 0.000000000000000000e+00
 </DataArray>
 <DataArray Name="massf[1]-He" type="Float32" NumberOfComponents="1" format="ascii">
 0.000000000000000000e+00
 0.000000000000000000e+00
 0.000000000000000000e+00
 0.000000000000000000e+00
 0.000000000000000000e+00
 0.000000000000000000e+00
 0.000000000000000000e+00
 0.000000000000000000e+00
 0.000000000000000000e+00
 0.000000000000000000e+00
 0.000000000000000000e+00
 0.000000000000000000e+00
 0.000000000000000000e+00
 0.000000000000000000e+00
 0.000000000000000000e+00
 0.000000000000000000e+00
 0.000000000000000000e+00
 0.000000000000000000e+00
 0.000000000000000000e+00
 0.000000000000000000e+00
 0.000000000000000000e+00
 0.000000000000000000e+00
 </DataArray>
 <DataArray Name="massf[2]-N" type="Float32" NumberOfComponents="1" format="ascii">
 0.000000000000000000e+00
 0.000000000000000000e+00
 0.000000000000000000e+00
 0.000000000000000000e+00
 0.000000000000000000e+00
 0.000000000000000000e+00
 0.000000000000000000e+00
 0.000000000000000000e+00
 0.000000000000000000e+00
 0.000000000000000000e+00
 0.000000000000000000e+00
 0.000000000000000000e+00
 0.000000000000000000e+00
 0.000000000000000000e+00
 0.000000000000000000e+00
 0.000000000000000000e+00
 0.000000000000000000e+00
 0.000000000000000000e+00
 0.000000000000000000e+00
 0.000000000000000000e+00
 0.000000000000000000e+00
 0.000000000000000000e+00
 </DataArray>
 <DataArray Name="massf[3]-N2" type="Float32" NumberOfComponents="1" format="ascii">
 7.563277885211407980e-01
 7.563277885211407980e-01
 7.563277885211407980e-01
 7.563277885211407980e-01
 7.563277885211407980e-01
 7.563277885211407980e-01
 7.563277885211407980e-01
 7.563277885211407980e-01
 7.563277885211407980e-01
 7.563277885211407980e-01
 7.563277885211407980e-01
 7.563277885211407980e-01
 7.563277885211407980e-01
 7.563277885211407980e-01
 7.563277885211407980e-01
 7.563277885211407980e-01
 7.563277885211407980e-01
 7.563277885211407980e-01
 7.563277885211407980e-01
 7.563277885211407980e-01
 7.563277885211407980e-01
 7.563277885211407980e-01
 </DataArray>
 <DataArray Name="massf[4]-NO" type="Float32" NumberOfComponents="1" format="ascii">
 0.000000000000000000e+00
 0.000000000000000000e+00
 0.000000000000000000e+00
 0.000000000000000000e+00
 0.000000000000000000e+00
 0.000000000000000000e+00
 0.000000000000000000e+00
 0.000000000000000000e+00
 0.000000000000000000e+00
 0.000000000000000000e+00
 0.000000000000000000e+00
 0.000000000000000000e+00
 0.000000000000000000e+00
 0.000000000000000000e+00
 0.000000000000000000e+00
 0.000000000000000000e+00
 0.000000000000000000e+00
 0.000000000000000000e+00
 0.000000000000000000e+00
 0.000000000000000000e+00
 0.000000000000000000e+00
 0.000000000000000000e+00
 </DataArray>
 <DataArray Name="massf[5]-O" type="Float32" NumberOfComponents="1" format="ascii">
 0.000000000000000000e+00
 0.000000000000000000e+00
 0.000000000000000000e+00
 0.000000000000000000e+00
 0.000000000000000000e+00
 0.000000000000000000e+00
 0.000000000000000000e+00
 0.000000000000000000e+00
 0.000000000000000000e+00
 0.000000000000000000e+00
 0.000000000000000000e+00
 0.000000000000000000e+00
 0.000000000000000000e+00
 0.000000000000000000e+00
 0.000000000000000000e+00
 0.000000000000000000e+00
 0.000000000000000000e+00
 0.000000000000000000e+00
 0.000000000000000000e+00
 0.000000000000000000e+00
 0.000000000000000000e+00
 0.000000000000000000e+00
 </DataArray>
 <DataArray Name="massf[6]-O2" type="Float32" NumberOfComponents="1" format="ascii">
 2.436722114788592020e-01
 2.436722114788592020e-01
 2.436722114788592020e-01
 2.436722114788592020e-01
 2.436722114788592020e-01
 2.436722114788592020e-01
 2.436722114788592020e-01
 2.436722114788592020e-01
 2.436722114788592020e-01
 2.436722114788592020e-01
 2.436722114788592020e-01
 2.436722114788592020e-01
 2.436722114788592020e-01
 2.436722114788592020e-01
 2.436722114788592020e-01
 2.436722114788592020e-01
 2.436722114788592020e-01
 2.436722114788592020e-01
 2.436722114788592020e-01
 2.436722114788592020e-01
 2.436722114788592020e-01
 2.436722114788592020e-01
 </DataArray>
 <DataArray Name="dt_chem" type="Float32" NumberOfComponents="1" format="ascii">
 -1.000000000000000000e+00
 -1.000000000000000000e+00
 -1.000000000000000000e+00
 -1.000000000000000000e+00
 -1.000000000000000000e+00
 -1.000000000000000000e+00
 -1.000000000000000000e+00
 -1.000000000000000000e+00
 -1.000000000000000000e+00
 -1.000000000000000000e+00
 -1.000000000000000000e+00
 -1.000000000000000000e+00
 -1.000000000000000000e+00
 -1.000000000000000000e+00
 -1.000000000000000000e+00
 -1.000000000000000000e+00
 -1.000000000000000000e+00
 -1.000000000000000000e+00
 -1.000000000000000000e+00
 -1.000000000000000000e+00
 -1.000000000000000000e+00
 -1.000000000000000000e+00
 </DataArray>
 <DataArray Name="u" type="Float32" NumberOfComponents="1" format="ascii">
 -8.447044764501467580e+04
 -8.447044764501467580e+04
 -8.447044764501467580e+04
 -8.447044764501467580e+04
 -8.447044764501467580e+04
 -8.447044764501467580e+04
 -8.447044764501467580e+04
 -8.447044764501467580e+04
 -8.447044764501467580e+04
 -8.447044764501467580e+04
 -8.447044764501467580e+04
 -8.447044764501467580e+04
 -8.447044764501467580e+04
 -8.447044764501467580e+04
 -8.447044764501467580e+04
 -8.447044764501467580e+04
 -8.447044764501467580e+04
 -8.447044764501467580e+04
 -8.447044764501467580e+04
 -8.447044764501467580e+04
 -8.447044764501467580e+04
 -8.447044764501467580e+04
 </DataArray>
 <DataArray Name="T" type="Float32" NumberOfComponents="1" format="ascii">
 3.000000000000000000e+02
 3.000000000000000000e+02
 3.000000000000000000e+02
 3.000000000000000000e+02
 3.000000000000000000e+02
 3.000000000000000000e+02
 3.000000000000000000e+02
 3.000000000000000000e+02
 3.000000000000000000e+02
 3.000000000000000000e+02
 3.000000000000000000e+02
 3.000000000000000000e+02
 3.000000000000000000e+02
 3.000000000000000000e+02
 3.000000000000000000e+02
 3.000000000000000000e+02
 3.000000000000000000e+02
 3.000000000000000000e+02
 3.000000000000000000e+02
 3.000000000000000000e+02
 3.000000000000000000e+02
 3.000000000000000000e+02
 </DataArray>
 <DataArray Name="vel.vector" type="Float32" NumberOfComponents="3" format="ascii">
 2.711596917869592976e-14 1.082103590760441492e-11 0.000000000000000000e+00
 -2.153160293019273225e-14 -1.116355966002124944e-11 0.000000000000000000e+00
 3.810110728438495520e-14 1.275706189990399864e-11 0.000000000000000000e+00
 -2.579096062150371127e-14 -7.331489582096395452e-12 0.000000000000000000e+00
 -1.913007478934660582e-14 5.002595993702785293e-12 0.000000000000000000e+00
 9.560354149507933885e-15 -4.262584209213660102e-12 0.000000000000000000e+00
 5.199623555069560199e-14 4.515924960368788987e-12 0.000000000000000000e+00
 4.711956194149158339e-14 6.059305401179271300e-12 0.000000000000000000e+00
 2.026975931394316144e-14 -3.493805288481977023e-12 0.000000000000000000e+00
 2.072025209287446657e-14 -2.152726781556868474e-12 0.000000000000000000e+00
 1.050855027453188872e-13 1.422307150528157038e-11 0.000000000000000000e+00
 4.340235785246608635e-14 4.810873487776090585e-12 0.000000000000000000e+00
 4.119845943887333328e-14 5.821582365478361609e-12 0.000000000000000000e+00
 4.742550600687510040e-15 4.205044298877247400e-12 0.000000000000000000e+00
 -5.962416026400810254e-14 -1.277010355099639227e-11 0.000000000000000000e+00
 -1.249541513011556693e-13 -1.409075460478970143e-11 0.000000000000000000e+00
 -3.877920120437527984e-14 -5.493269034095860093e-12 0.000000000000000000e+00
 -1.934883968269986848e-14 3.062036952120039679e-12 0.000000000000000000e+00
 -2.975643684363302177e-14 3.581009403938462121e-12 0.000000000000000000e+00
 -7.957104078285329174e-14 -5.472888635338346575e-12 0.000000000000000000e+00
 -5.231534674324418710e-14 -1.566752456938491633e-11 0.000000000000000000e+00
 5.800712015759101892e-14 1.107406874534255792e-11 0.000000000000000000e+00
 </DataArray>
</CellData>
</Piece>
</UnstructuredGrid>
</VTKFile>
