<VTKFile type="UnstructuredGrid" byte_order="BigEndian">
<UnstructuredGrid><Piece NumberOfPoints="60" NumberOfCells="29">
<Points>
 <DataArray type="Float32" NumberOfComponents="3" format="ascii">
 9.634305953979492188e+00 0.000000000000000000e+00 0.000000000000000000e+00
 9.640802383422851562e+00 0.000000000000000000e+00 0.000000000000000000e+00
 9.647297859191894531e+00 0.000000000000000000e+00 0.000000000000000000e+00
 9.653794288635253906e+00 0.000000000000000000e+00 0.000000000000000000e+00
 9.660289764404296875e+00 0.000000000000000000e+00 0.000000000000000000e+00
 9.666786193847656250e+00 0.000000000000000000e+00 0.000000000000000000e+00
 9.673281669616699219e+00 0.000000000000000000e+00 0.000000000000000000e+00
 9.679778099060058594e+00 0.000000000000000000e+00 0.000000000000000000e+00
 9.686273574829101562e+00 0.000000000000000000e+00 0.000000000000000000e+00
 9.692770004272460938e+00 0.000000000000000000e+00 0.000000000000000000e+00
 9.699266433715820312e+00 0.000000000000000000e+00 0.000000000000000000e+00
 9.705761909484863281e+00 0.000000000000000000e+00 0.000000000000000000e+00
 9.712258338928222656e+00 0.000000000000000000e+00 0.000000000000000000e+00
 9.718753814697265625e+00 0.000000000000000000e+00 0.000000000000000000e+00
 9.725250244140625000e+00 0.000000000000000000e+00 0.000000000000000000e+00
 9.731745719909667969e+00 0.000000000000000000e+00 0.000000000000000000e+00
 9.738242149353027344e+00 0.000000000000000000e+00 0.000000000000000000e+00
 9.744737625122070312e+00 0.000000000000000000e+00 0.000000000000000000e+00
 9.751234054565429688e+00 0.000000000000000000e+00 0.000000000000000000e+00
 9.757729530334472656e+00 0.000000000000000000e+00 0.000000000000000000e+00
 9.764225959777832031e+00 0.000000000000000000e+00 0.000000000000000000e+00
 9.770722389221191406e+00 0.000000000000000000e+00 0.000000000000000000e+00
 9.777217864990234375e+00 0.000000000000000000e+00 0.000000000000000000e+00
 9.783714294433593750e+00 0.000000000000000000e+00 0.000000000000000000e+00
 9.790209770202636719e+00 0.000000000000000000e+00 0.000000000000000000e+00
 9.796706199645996094e+00 0.000000000000000000e+00 0.000000000000000000e+00
 9.803201675415039062e+00 0.000000000000000000e+00 0.000000000000000000e+00
 9.809698104858398438e+00 0.000000000000000000e+00 0.000000000000000000e+00
 9.816193580627441406e+00 0.000000000000000000e+00 0.000000000000000000e+00
 9.822690010070800781e+00 0.000000000000000000e+00 0.000000000000000000e+00
 9.634305953979492188e+00 9.674900025129318237e-02 0.000000000000000000e+00
 9.640802383422851562e+00 9.685514122247695923e-02 0.000000000000000000e+00
 9.647297859191894531e+00 9.696127474308013916e-02 0.000000000000000000e+00
 9.653794288635253906e+00 9.706741571426391602e-02 0.000000000000000000e+00
 9.660289764404296875e+00 9.717354923486709595e-02 0.000000000000000000e+00
 9.666786193847656250e+00 9.727969020605087280e-02 0.000000000000000000e+00
 9.673281669616699219e+00 9.738583117723464966e-02 0.000000000000000000e+00
 9.679778099060058594e+00 9.749196469783782959e-02 0.000000000000000000e+00
 9.686273574829101562e+00 9.759810566902160645e-02 0.000000000000000000e+00
 9.692770004272460938e+00 9.770423918962478638e-02 0.000000000000000000e+00
 9.699266433715820312e+00 9.781038016080856323e-02 0.000000000000000000e+00
 9.705761909484863281e+00 9.791651368141174316e-02 0.000000000000000000e+00
 9.712258338928222656e+00 9.802265465259552002e-02 0.000000000000000000e+00
 9.718753814697265625e+00 9.812879562377929688e-02 0.000000000000000000e+00
 9.725250244140625000e+00 9.823492914438247681e-02 0.000000000000000000e+00
 9.731745719909667969e+00 9.834107011556625366e-02 0.000000000000000000e+00
 9.738242149353027344e+00 9.844720363616943359e-02 0.000000000000000000e+00
 9.744737625122070312e+00 9.855334460735321045e-02 0.000000000000000000e+00
 9.751234054565429688e+00 9.865948557853698730e-02 0.000000000000000000e+00
 9.757729530334472656e+00 9.876561909914016724e-02 0.000000000000000000e+00
 9.764225959777832031e+00 9.887176007032394409e-02 0.000000000000000000e+00
 9.770722389221191406e+00 9.897789359092712402e-02 0.000000000000000000e+00
 9.777217864990234375e+00 9.908403456211090088e-02 0.000000000000000000e+00
 9.783714294433593750e+00 9.919017553329467773e-02 0.000000000000000000e+00
 9.790209770202636719e+00 9.929630905389785767e-02 0.000000000000000000e+00
 9.796706199645996094e+00 9.940245002508163452e-02 0.000000000000000000e+00
 9.803201675415039062e+00 9.950858354568481445e-02 0.000000000000000000e+00
 9.809698104858398438e+00 9.961472451686859131e-02 0.000000000000000000e+00
 9.816193580627441406e+00 9.972086548805236816e-02 0.000000000000000000e+00
 9.822690010070800781e+00 9.982699900865554810e-02 0.000000000000000000e+00
 </DataArray>
</Points>
<Cells>
 <DataArray type="Int32" Name="connectivity" format="ascii">
 0 1 31 30
 1 2 32 31
 2 3 33 32
 3 4 34 33
 4 5 35 34
 5 6 36 35
 6 7 37 36
 7 8 38 37
 8 9 39 38
 9 10 40 39
 10 11 41 40
 11 12 42 41
 12 13 43 42
 13 14 44 43
 14 15 45 44
 15 16 46 45
 16 17 47 46
 17 18 48 47
 18 19 49 48
 19 20 50 49
 20 21 51 50
 21 22 52 51
 22 23 53 52
 23 24 54 53
 24 25 55 54
 25 26 56 55
 26 27 57 56
 27 28 58 57
 28 29 59 58
 </DataArray>
 <DataArray type="Int32" Name="offsets" format="ascii">
 4
 8
 12
 16
 20
 24
 28
 32
 36
 40
 44
 48
 52
 56
 60
 64
 68
 72
 76
 80
 84
 88
 92
 96
 100
 104
 108
 112
 116
 </DataArray>
 <DataArray type="UInt8" Name="types" format="ascii">
 9
 9
 9
 9
 9
 9
 9
 9
 9
 9
 9
 9
 9
 9
 9
 9
 9
 9
 9
 9
 9
 9
 9
 9
 9
 9
 9
 9
 9
 </DataArray>
</Cells>
<CellData>
 <DataArray Name="pos.x" type="Float32" NumberOfComponents="1" format="ascii">
 9.637554593541606707e+00
 9.644050592891172613e+00
 9.650546592243378186e+00
 9.657042591594368730e+00
 9.663538590949091400e+00
 9.670034590306645583e+00
 9.676530589661362924e+00
 9.683026589018602692e+00
 9.689522588379832158e+00
 9.696018587742422312e+00
 9.702514587104422716e+00
 9.709010586468377113e+00
 9.715506585833162845e+00
 9.722002585197875746e+00
 9.728498584568148644e+00
 9.734994583937476520e+00
 9.741490583310163487e+00
 9.747986582679285306e+00
 9.754482582051444695e+00
 9.760978581429268885e+00
 9.767474580805972195e+00
 9.773970580182480106e+00
 9.780466579561398532e+00
 9.786962578939201407e+00
 9.793458578321844854e+00
 9.799954577706429859e+00
 9.806450577089892207e+00
 9.812946576476331728e+00
 9.819442575860581002e+00
 </DataArray>
 <DataArray Name="pos.y" type="Float32" NumberOfComponents="1" format="ascii">
 4.840103933168554695e-02
 4.845410829188747520e-02
 4.850717725211129566e-02
 4.856024621233163974e-02
 4.861331517257863610e-02
 4.866638413282865089e-02
 4.871945309309571454e-02
 4.877252205336865543e-02
 4.882559101365198384e-02
 4.887865997396376866e-02
 4.893172893426122466e-02
 4.898479789459075223e-02
 4.903786685492044634e-02
 4.909093581525045963e-02
 4.914400477562334141e-02
 4.919707373598539851e-02
 4.925014269636711350e-02
 4.930321165674278472e-02
 4.935628061714162490e-02
 4.940934957756138585e-02
 4.946241853797861410e-02
 4.951548749840672253e-02
 4.956855645885428763e-02
 4.962162541929915349e-02
 4.967469437976990837e-02
 4.972776334024490291e-02
 4.978083230073061111e-02
 4.983390126122862890e-02
 4.988697022173225332e-02
 </DataArray>
 <DataArray Name="pos.z" type="Float32" NumberOfComponents="1" format="ascii">
 0.000000000000000000e+00
 0.000000000000000000e+00
 0.000000000000000000e+00
 0.000000000000000000e+00
 0.000000000000000000e+00
 0.000000000000000000e+00
 0.000000000000000000e+00
 0.000000000000000000e+00
 0.000000000000000000e+00
 0.000000000000000000e+00
 0.000000000000000000e+00
 0.000000000000000000e+00
 0.000000000000000000e+00
 0.000000000000000000e+00
 0.000000000000000000e+00
 0.000000000000000000e+00
 0.000000000000000000e+00
 0.000000000000000000e+00
 0.000000000000000000e+00
 0.000000000000000000e+00
 0.000000000000000000e+00
 0.000000000000000000e+00
 0.000000000000000000e+00
 0.000000000000000000e+00
 0.000000000000000000e+00
 0.000000000000000000e+00
 0.000000000000000000e+00
 0.000000000000000000e+00
 0.000000000000000000e+00
 </DataArray>
 <DataArray Name="volume" type="Float32" NumberOfComponents="1" format="ascii">
 3.043584357504356484e-05
 3.050262248068648992e-05
 3.056947456549436240e-05
 3.063639982939200980e-05
 3.070339827246311220e-05
 3.077046989466588039e-05
 3.083761469594970922e-05
 3.090483267641568022e-05
 3.097212383599636957e-05
 3.103948817470865695e-05
 3.110692569255251523e-05
 3.117443638951944022e-05
 3.124202026564354363e-05
 3.130967732086506559e-05
 3.137740755524383372e-05
 3.144521096874562790e-05
 3.151308756137901333e-05
 3.158103733314397644e-05
 3.164906028403187074e-05
 3.171715641406867641e-05
 3.178532572322841326e-05
 3.185356821151971425e-05
 3.192188387894260649e-05
 3.199027272548835536e-05
 3.205873475119193995e-05
 3.212726995600083743e-05
 3.219587833994127195e-05
 3.226455990303090922e-05
 3.233331464524332182e-05
 </DataArray>
 <DataArray Name="rho" type="Float32" NumberOfComponents="1" format="ascii">
 1.528855304762397147e-04
 1.528855304762397147e-04
 1.528855304762397147e-04
 1.528855304762397147e-04
 1.528855304762397147e-04
 1.528855304762397147e-04
 1.528855304762397147e-04
 1.528855304762397147e-04
 1.528855304762397147e-04
 1.528855304762397147e-04
 1.528855304762397147e-04
 1.528855304762397147e-04
 1.528855304762397147e-04
 1.528855304762397147e-04
 1.528855304762397147e-04
 1.528855304762397147e-04
 1.528855304762397147e-04
 1.528855304762397147e-04
 1.528855304762397147e-04
 1.528855304762397147e-04
 1.528855304762397147e-04
 1.528855304762397147e-04
 1.528855304762397147e-04
 1.528855304762397147e-04
 1.528855304762397147e-04
 1.528855304762397147e-04
 1.528855304762397147e-04
 1.528855304762397147e-04
 1.528855304762397147e-04
 </DataArray>
 <DataArray Name="vel.x" type="Float32" NumberOfComponents="1" format="ascii">
 1.913110674582901231e-14
 -3.816416872546096958e-16
 1.721940401987043569e-14
 3.097074045217674211e-14
 -1.919366226365261055e-14
 1.917610307869112630e-14
 1.943982772314694897e-14
 -1.634339411308676771e-14
 2.062909678017594248e-14
 -1.974965577120729630e-14
 -1.959262810974358882e-14
 1.743834816374558434e-14
 1.823066163918991480e-14
 1.921868613270201644e-14
 -3.883461832083792672e-14
 -3.956378020536206911e-14
 -4.136374039532914534e-15
 2.200074463360566959e-14
 1.961430670844079474e-14
 1.398693963062991580e-14
 -7.917660805071836840e-15
 3.858378171773497728e-14
 2.079022909848626306e-14
 1.943276683937246687e-14
 -3.782075293366679446e-14
 -2.502465985569988517e-14
 1.921505359394056361e-14
 -1.226316065062167776e-14
 3.405667573890911682e-14
 </DataArray>
 <DataArray Name="vel.y" type="Float32" NumberOfComponents="1" format="ascii">
 -5.747231990623184258e-12
 2.495498711376645595e-12
 -7.784399735539903531e-12
 9.024493071361548947e-12
 -1.259610899715196259e-12
 3.620783748666004443e-12
 -1.477493979780889947e-12
 3.363494608085713176e-12
 9.953035291201232447e-12
 -1.377424250960589933e-11
 7.966484893799838032e-12
 -7.101563188069618568e-12
 -2.602686737520692263e-12
 2.106082125379088174e-11
 -1.099264515804140325e-11
 -4.463058221067655618e-12
 -1.290244785285440459e-11
 8.505413527150363661e-12
 8.725425129314376896e-12
 -8.300376642070256387e-12
 -1.850641312106018306e-12
 4.601237756613144414e-12
 -3.742189844102598602e-12
 1.132154060238646311e-11
 3.810472593245954588e-13
 7.736296449881533675e-13
 1.159484354164735750e-12
 -1.143918572860091856e-12
 5.190543346051569395e-12
 </DataArray>
 <DataArray Name="vel.z" type="Float32" NumberOfComponents="1" format="ascii">
 0.000000000000000000e+00
 0.000000000000000000e+00
 0.000000000000000000e+00
 0.000000000000000000e+00
 0.000000000000000000e+00
 0.000000000000000000e+00
 0.000000000000000000e+00
 0.000000000000000000e+00
 0.000000000000000000e+00
 0.000000000000000000e+00
 0.000000000000000000e+00
 0.000000000000000000e+00
 0.000000000000000000e+00
 0.000000000000000000e+00
 0.000000000000000000e+00
 0.000000000000000000e+00
 0.000000000000000000e+00
 0.000000000000000000e+00
 0.000000000000000000e+00
 0.000000000000000000e+00
 0.000000000000000000e+00
 0.000000000000000000e+00
 0.000000000000000000e+00
 0.000000000000000000e+00
 0.000000000000000000e+00
 0.000000000000000000e+00
 0.000000000000000000e+00
 0.000000000000000000e+00
 0.000000000000000000e+00
 </DataArray>
 <DataArray Name="p" type="Float32" NumberOfComponents="1" format="ascii">
 1.319999999999999929e+01
 1.319999999999999929e+01
 1.319999999999999929e+01
 1.319999999999999929e+01
 1.319999999999999929e+01
 1.319999999999999929e+01
 1.319999999999999929e+01
 1.319999999999999929e+01
 1.319999999999999929e+01
 1.319999999999999929e+01
 1.319999999999999929e+01
 1.319999999999999929e+01
 1.319999999999999929e+01
 1.319999999999999929e+01
 1.319999999999999929e+01
 1.319999999999999929e+01
 1.319999999999999929e+01
 1.319999999999999929e+01
 1.319999999999999929e+01
 1.319999999999999929e+01
 1.319999999999999929e+01
 1.319999999999999929e+01
 1.319999999999999929e+01
 1.319999999999999929e+01
 1.319999999999999929e+01
 1.319999999999999929e+01
 1.319999999999999929e+01
 1.319999999999999929e+01
 1.319999999999999929e+01
 </DataArray>
 <DataArray Name="a" type="Float32" NumberOfComponents="1" format="ascii">
 3.474749704973453390e+02
 3.474749704973453390e+02
 3.474749704973453390e+02
 3.474749704973453390e+02
 3.474749704973453390e+02
 3.474749704973453390e+02
 3.474749704973453390e+02
 3.474749704973453390e+02
 3.474749704973453390e+02
 3.474749704973453390e+02
 3.474749704973453390e+02
 3.474749704973453390e+02
 3.474749704973453390e+02
 3.474749704973453390e+02
 3.474749704973453390e+02
 3.474749704973453390e+02
 3.474749704973453390e+02
 3.474749704973453390e+02
 3.474749704973453390e+02
 3.474749704973453390e+02
 3.474749704973453390e+02
 3.474749704973453390e+02
 3.474749704973453390e+02
 3.474749704973453390e+02
 3.474749704973453390e+02
 3.474749704973453390e+02
 3.474749704973453390e+02
 3.474749704973453390e+02
 3.474749704973453390e+02
 </DataArray>
 <DataArray Name="mu" type="Float32" NumberOfComponents="1" format="ascii">
 1.853126952258717352e-05
 1.853126952258717352e-05
 1.853126952258717352e-05
 1.853126952258717352e-05
 1.853126952258717352e-05
 1.853126952258717352e-05
 1.853126952258717352e-05
 1.853126952258717352e-05
 1.853126952258717352e-05
 1.853126952258717352e-05
 1.853126952258717352e-05
 1.853126952258717352e-05
 1.853126952258717352e-05
 1.853126952258717352e-05
 1.853126952258717352e-05
 1.853126952258717352e-05
 1.853126952258717352e-05
 1.853126952258717352e-05
 1.853126952258717352e-05
 1.853126952258717352e-05
 1.853126952258717352e-05
 1.853126952258717352e-05
 1.853126952258717352e-05
 1.853126952258717352e-05
 1.853126952258717352e-05
 1.853126952258717352e-05
 1.853126952258717352e-05
 1.853126952258717352e-05
 1.853126952258717352e-05
 </DataArray>
 <DataArray Name="k" type="Float32" NumberOfComponents="1" format="ascii">
 2.626199291280435430e-02
 2.626199291280435430e-02
 2.626199291280435430e-02
 2.626199291280435430e-02
 2.626199291280435430e-02
 2.626199291280435430e-02
 2.626199291280435430e-02
 2.626199291280435430e-02
 2.626199291280435430e-02
 2.626199291280435430e-02
 2.626199291280435430e-02
 2.626199291280435430e-02
 2.626199291280435430e-02
 2.626199291280435430e-02
 2.626199291280435430e-02
 2.626199291280435430e-02
 2.626199291280435430e-02
 2.626199291280435430e-02
 2.626199291280435430e-02
 2.626199291280435430e-02
 2.626199291280435430e-02
 2.626199291280435430e-02
 2.626199291280435430e-02
 2.626199291280435430e-02
 2.626199291280435430e-02
 2.626199291280435430e-02
 2.626199291280435430e-02
 2.626199291280435430e-02
 2.626199291280435430e-02
 </DataArray>
 <DataArray Name="mu_t" type="Float32" NumberOfComponents="1" format="ascii">
 0.000000000000000000e+00
 0.000000000000000000e+00
 0.000000000000000000e+00
 0.000000000000000000e+00
 0.000000000000000000e+00
 0.000000000000000000e+00
 0.000000000000000000e+00
 0.000000000000000000e+00
 0.000000000000000000e+00
 0.000000000000000000e+00
 0.000000000000000000e+00
 0.000000000000000000e+00
 0.000000000000000000e+00
 0.000000000000000000e+00
 0.000000000000000000e+00
 0.000000000000000000e+00
 0.000000000000000000e+00
 0.000000000000000000e+00
 0.000000000000000000e+00
 0.000000000000000000e+00
 0.000000000000000000e+00
 0.000000000000000000e+00
 0.000000000000000000e+00
 0.000000000000000000e+00
 0.000000000000000000e+00
 0.000000000000000000e+00
 0.000000000000000000e+00
 0.000000000000000000e+00
 0.000000000000000000e+00
 </DataArray>
 <DataArray Name="k_t" type="Float32" NumberOfComponents="1" format="ascii">
 0.000000000000000000e+00
 0.000000000000000000e+00
 0.000000000000000000e+00
 0.000000000000000000e+00
 0.000000000000000000e+00
 0.000000000000000000e+00
 0.000000000000000000e+00
 0.000000000000000000e+00
 0.000000000000000000e+00
 0.000000000000000000e+00
 0.000000000000000000e+00
 0.000000000000000000e+00
 0.000000000000000000e+00
 0.000000000000000000e+00
 0.000000000000000000e+00
 0.000000000000000000e+00
 0.000000000000000000e+00
 0.000000000000000000e+00
 0.000000000000000000e+00
 0.000000000000000000e+00
 0.000000000000000000e+00
 0.000000000000000000e+00
 0.000000000000000000e+00
 0.000000000000000000e+00
 0.000000000000000000e+00
 0.000000000000000000e+00
 0.000000000000000000e+00
 0.000000000000000000e+00
 0.000000000000000000e+00
 </DataArray>
 <DataArray Name="S" type="Float32" NumberOfComponents="1" format="ascii">
 0.000000000000000000e+00
 0.000000000000000000e+00
 0.000000000000000000e+00
 0.000000000000000000e+00
 0.000000000000000000e+00
 0.000000000000000000e+00
 0.000000000000000000e+00
 0.000000000000000000e+00
 0.000000000000000000e+00
 0.000000000000000000e+00
 0.000000000000000000e+00
 0.000000000000000000e+00
 0.000000000000000000e+00
 0.000000000000000000e+00
 0.000000000000000000e+00
 0.000000000000000000e+00
 0.000000000000000000e+00
 0.000000000000000000e+00
 0.000000000000000000e+00
 0.000000000000000000e+00
 0.000000000000000000e+00
 0.000000000000000000e+00
 0.000000000000000000e+00
 0.000000000000000000e+00
 0.000000000000000000e+00
 0.000000000000000000e+00
 0.000000000000000000e+00
 0.000000000000000000e+00
 0.000000000000000000e+00
 </DataArray>
 <DataArray Name="massf[0]-Ar" type="Float32" NumberOfComponents="1" format="ascii">
 0.000000000000000000e+00
 0.000000000000000000e+00
 0.000000000000000000e+00
 0.000000000000000000e+00
 0.000000000000000000e+00
 0.000000000000000000e+00
 0.000000000000000000e+00
 0.000000000000000000e+00
 0.000000000000000000e+00
 0.000000000000000000e+00
 0.000000000000000000e+00
 0.000000000000000000e+00
 0.000000000000000000e+00
 0.000000000000000000e+00
 0.000000000000000000e+00
 0.000000000000000000e+00
 0.000000000000000000e+00
 0.000000000000000000e+00
 0.000000000000000000e+00
 0.000000000000000000e+00
 0.000000000000000000e+00
 0.000000000000000000e+00
 0.000000000000000000e+00
 0.000000000000000000e+00
 0.000000000000000000e+00
 0.000000000000000000e+00
 0.000000000000000000e+00
 0.000000000000000000e+00
 0.000000000000000000e+00
 </DataArray>
 <DataArray Name="massf[1]-He" type="Float32" NumberOfComponents="1" format="ascii">
 0.000000000000000000e+00
 0.000000000000000000e+00
 0.000000000000000000e+00
 0.000000000000000000e+00
 0.000000000000000000e+00
 0.000000000000000000e+00
 0.000000000000000000e+00
 0.000000000000000000e+00
 0.000000000000000000e+00
 0.000000000000000000e+00
 0.000000000000000000e+00
 0.000000000000000000e+00
 0.000000000000000000e+00
 0.000000000000000000e+00
 0.000000000000000000e+00
 0.000000000000000000e+00
 0.000000000000000000e+00
 0.000000000000000000e+00
 0.000000000000000000e+00
 0.000000000000000000e+00
 0.000000000000000000e+00
 0.000000000000000000e+00
 0.000000000000000000e+00
 0.000000000000000000e+00
 0.000000000000000000e+00
 0.000000000000000000e+00
 0.000000000000000000e+00
 0.000000000000000000e+00
 0.000000000000000000e+00
 </DataArray>
 <DataArray Name="massf[2]-N" type="Float32" NumberOfComponents="1" format="ascii">
 0.000000000000000000e+00
 0.000000000000000000e+00
 0.000000000000000000e+00
 0.000000000000000000e+00
 0.000000000000000000e+00
 0.000000000000000000e+00
 0.000000000000000000e+00
 0.000000000000000000e+00
 0.000000000000000000e+00
 0.000000000000000000e+00
 0.000000000000000000e+00
 0.000000000000000000e+00
 0.000000000000000000e+00
 0.000000000000000000e+00
 0.000000000000000000e+00
 0.000000000000000000e+00
 0.000000000000000000e+00
 0.000000000000000000e+00
 0.000000000000000000e+00
 0.000000000000000000e+00
 0.000000000000000000e+00
 0.000000000000000000e+00
 0.000000000000000000e+00
 0.000000000000000000e+00
 0.000000000000000000e+00
 0.000000000000000000e+00
 0.000000000000000000e+00
 0.000000000000000000e+00
 0.000000000000000000e+00
 </DataArray>
 <DataArray Name="massf[3]-N2" type="Float32" NumberOfComponents="1" format="ascii">
 7.563277885211407980e-01
 7.563277885211407980e-01
 7.563277885211407980e-01
 7.563277885211407980e-01
 7.563277885211407980e-01
 7.563277885211407980e-01
 7.563277885211407980e-01
 7.563277885211407980e-01
 7.563277885211407980e-01
 7.563277885211407980e-01
 7.563277885211407980e-01
 7.563277885211407980e-01
 7.563277885211407980e-01
 7.563277885211407980e-01
 7.563277885211407980e-01
 7.563277885211407980e-01
 7.563277885211407980e-01
 7.563277885211407980e-01
 7.563277885211407980e-01
 7.563277885211407980e-01
 7.563277885211407980e-01
 7.563277885211407980e-01
 7.563277885211407980e-01
 7.563277885211407980e-01
 7.563277885211407980e-01
 7.563277885211407980e-01
 7.563277885211407980e-01
 7.563277885211407980e-01
 7.563277885211407980e-01
 </DataArray>
 <DataArray Name="massf[4]-NO" type="Float32" NumberOfComponents="1" format="ascii">
 0.000000000000000000e+00
 0.000000000000000000e+00
 0.000000000000000000e+00
 0.000000000000000000e+00
 0.000000000000000000e+00
 0.000000000000000000e+00
 0.000000000000000000e+00
 0.000000000000000000e+00
 0.000000000000000000e+00
 0.000000000000000000e+00
 0.000000000000000000e+00
 0.000000000000000000e+00
 0.000000000000000000e+00
 0.000000000000000000e+00
 0.000000000000000000e+00
 0.000000000000000000e+00
 0.000000000000000000e+00
 0.000000000000000000e+00
 0.000000000000000000e+00
 0.000000000000000000e+00
 0.000000000000000000e+00
 0.000000000000000000e+00
 0.000000000000000000e+00
 0.000000000000000000e+00
 0.000000000000000000e+00
 0.000000000000000000e+00
 0.000000000000000000e+00
 0.000000000000000000e+00
 0.000000000000000000e+00
 </DataArray>
 <DataArray Name="massf[5]-O" type="Float32" NumberOfComponents="1" format="ascii">
 0.000000000000000000e+00
 0.000000000000000000e+00
 0.000000000000000000e+00
 0.000000000000000000e+00
 0.000000000000000000e+00
 0.000000000000000000e+00
 0.000000000000000000e+00
 0.000000000000000000e+00
 0.000000000000000000e+00
 0.000000000000000000e+00
 0.000000000000000000e+00
 0.000000000000000000e+00
 0.000000000000000000e+00
 0.000000000000000000e+00
 0.000000000000000000e+00
 0.000000000000000000e+00
 0.000000000000000000e+00
 0.000000000000000000e+00
 0.000000000000000000e+00
 0.000000000000000000e+00
 0.000000000000000000e+00
 0.000000000000000000e+00
 0.000000000000000000e+00
 0.000000000000000000e+00
 0.000000000000000000e+00
 0.000000000000000000e+00
 0.000000000000000000e+00
 0.000000000000000000e+00
 0.000000000000000000e+00
 </DataArray>
 <DataArray Name="massf[6]-O2" type="Float32" NumberOfComponents="1" format="ascii">
 2.436722114788592020e-01
 2.436722114788592020e-01
 2.436722114788592020e-01
 2.436722114788592020e-01
 2.436722114788592020e-01
 2.436722114788592020e-01
 2.436722114788592020e-01
 2.436722114788592020e-01
 2.436722114788592020e-01
 2.436722114788592020e-01
 2.436722114788592020e-01
 2.436722114788592020e-01
 2.436722114788592020e-01
 2.436722114788592020e-01
 2.436722114788592020e-01
 2.436722114788592020e-01
 2.436722114788592020e-01
 2.436722114788592020e-01
 2.436722114788592020e-01
 2.436722114788592020e-01
 2.436722114788592020e-01
 2.436722114788592020e-01
 2.436722114788592020e-01
 2.436722114788592020e-01
 2.436722114788592020e-01
 2.436722114788592020e-01
 2.436722114788592020e-01
 2.436722114788592020e-01
 2.436722114788592020e-01
 </DataArray>
 <DataArray Name="dt_chem" type="Float32" NumberOfComponents="1" format="ascii">
 -1.000000000000000000e+00
 -1.000000000000000000e+00
 -1.000000000000000000e+00
 -1.000000000000000000e+00
 -1.000000000000000000e+00
 -1.000000000000000000e+00
 -1.000000000000000000e+00
 -1.000000000000000000e+00
 -1.000000000000000000e+00
 -1.000000000000000000e+00
 -1.000000000000000000e+00
 -1.000000000000000000e+00
 -1.000000000000000000e+00
 -1.000000000000000000e+00
 -1.000000000000000000e+00
 -1.000000000000000000e+00
 -1.000000000000000000e+00
 -1.000000000000000000e+00
 -1.000000000000000000e+00
 -1.000000000000000000e+00
 -1.000000000000000000e+00
 -1.000000000000000000e+00
 -1.000000000000000000e+00
 -1.000000000000000000e+00
 -1.000000000000000000e+00
 -1.000000000000000000e+00
 -1.000000000000000000e+00
 -1.000000000000000000e+00
 -1.000000000000000000e+00
 </DataArray>
 <DataArray Name="u" type="Float32" NumberOfComponents="1" format="ascii">
 -8.447044764501467580e+04
 -8.447044764501467580e+04
 -8.447044764501467580e+04
 -8.447044764501467580e+04
 -8.447044764501467580e+04
 -8.447044764501467580e+04
 -8.447044764501467580e+04
 -8.447044764501467580e+04
 -8.447044764501467580e+04
 -8.447044764501467580e+04
 -8.447044764501467580e+04
 -8.447044764501467580e+04
 -8.447044764501467580e+04
 -8.447044764501467580e+04
 -8.447044764501467580e+04
 -8.447044764501467580e+04
 -8.447044764501467580e+04
 -8.447044764501467580e+04
 -8.447044764501467580e+04
 -8.447044764501467580e+04
 -8.447044764501467580e+04
 -8.447044764501467580e+04
 -8.447044764501467580e+04
 -8.447044764501467580e+04
 -8.447044764501467580e+04
 -8.447044764501467580e+04
 -8.447044764501467580e+04
 -8.447044764501467580e+04
 -8.447044764501467580e+04
 </DataArray>
 <DataArray Name="T" type="Float32" NumberOfComponents="1" format="ascii">
 3.000000000000000000e+02
 3.000000000000000000e+02
 3.000000000000000000e+02
 3.000000000000000000e+02
 3.000000000000000000e+02
 3.000000000000000000e+02
 3.000000000000000000e+02
 3.000000000000000000e+02
 3.000000000000000000e+02
 3.000000000000000000e+02
 3.000000000000000000e+02
 3.000000000000000000e+02
 3.000000000000000000e+02
 3.000000000000000000e+02
 3.000000000000000000e+02
 3.000000000000000000e+02
 3.000000000000000000e+02
 3.000000000000000000e+02
 3.000000000000000000e+02
 3.000000000000000000e+02
 3.000000000000000000e+02
 3.000000000000000000e+02
 3.000000000000000000e+02
 3.000000000000000000e+02
 3.000000000000000000e+02
 3.000000000000000000e+02
 3.000000000000000000e+02
 3.000000000000000000e+02
 3.000000000000000000e+02
 </DataArray>
 <DataArray Name="vel.vector" type="Float32" NumberOfComponents="3" format="ascii">
 1.913110647547636156e-14 -5.747232117297995657e-12 0.000000000000000000e+00
 -3.816416793439597220e-16 2.495498816271202180e-12 0.000000000000000000e+00
 1.721940393550024095e-14 -7.784399860821800132e-12 0.000000000000000000e+00
 3.097073988868499772e-14 9.024492958475960336e-12 0.000000000000000000e+00
 -1.919366155269698615e-14 -1.259610905163244254e-12 0.000000000000000000e+00
 1.917610255970040450e-14 3.620783794316961846e-12 0.000000000000000000e+00
 1.943982796189392542e-14 -1.477494016889624451e-12 0.000000000000000000e+00
 -1.634339399112037100e-14 3.363494595690075251e-12 0.000000000000000000e+00
 2.062909610115685327e-14 9.953034924015113916e-12 0.000000000000000000e+00
 -1.974965567334060340e-14 -1.377424216353340114e-11 0.000000000000000000e+00
 -1.959262762338091768e-14 7.966485110477705689e-12 0.000000000000000000e+00
 1.743834839983832152e-14 -7.101563261058263521e-12 0.000000000000000000e+00
 1.823066132463409955e-14 -2.602686729330505599e-12 0.000000000000000000e+00
 1.921868629409066720e-14 2.106082148956023303e-11 0.000000000000000000e+00
 -3.883461748791644519e-14 -1.099264516218889653e-11 0.000000000000000000e+00
 -3.956378071836262611e-14 -4.463058395076657803e-12 0.000000000000000000e+00
 -4.136374013083811765e-15 -1.290244820706387685e-11 0.000000000000000000e+00
 2.200074398649078805e-14 8.505413387482896326e-12 0.000000000000000000e+00
 1.961430658463294424e-14 8.725424896494082816e-12 0.000000000000000000e+00
 1.398693986152943491e-14 -8.300376878878079623e-12 0.000000000000000000e+00
 -7.917660803250306523e-15 -1.850641384928963795e-12 0.000000000000000000e+00
 3.858378053904834570e-14 4.601237793555590372e-12 0.000000000000000000e+00
 2.079022887277893333e-14 -3.742189717825805673e-12 0.000000000000000000e+00
 1.943276709524561358e-14 1.132154092697845726e-11 0.000000000000000000e+00
 -3.782075293137093785e-14 3.810472716438834118e-13 0.000000000000000000e+00
 -2.502466007851811280e-14 7.736296412513832266e-13 0.000000000000000000e+00
 1.921505421681284076e-14 1.159484400853338926e-12 0.000000000000000000e+00
 -1.226316089826410063e-14 -1.143918618683181787e-12 0.000000000000000000e+00
 3.405667742717617685e-14 5.190543307664885475e-12 0.000000000000000000e+00
 </DataArray>
</CellData>
</Piece>
</UnstructuredGrid>
</VTKFile>
