<VTKFile type="UnstructuredGrid" byte_order="BigEndian">
<UnstructuredGrid><Piece NumberOfPoints="22" NumberOfCells="10">
<Points>
 <DataArray type="Float32" NumberOfComponents="3" format="ascii">
 8.764294624328613281e+00 0.000000000000000000e+00 0.000000000000000000e+00
 8.770785331726074219e+00 0.000000000000000000e+00 0.000000000000000000e+00
 8.777276039123535156e+00 0.000000000000000000e+00 0.000000000000000000e+00
 8.783766746520996094e+00 0.000000000000000000e+00 0.000000000000000000e+00
 8.790257453918457031e+00 0.000000000000000000e+00 0.000000000000000000e+00
 8.796748161315917969e+00 0.000000000000000000e+00 0.000000000000000000e+00
 8.803238868713378906e+00 0.000000000000000000e+00 0.000000000000000000e+00
 8.809729576110839844e+00 0.000000000000000000e+00 0.000000000000000000e+00
 8.816220283508300781e+00 0.000000000000000000e+00 0.000000000000000000e+00
 8.822710990905761719e+00 0.000000000000000000e+00 0.000000000000000000e+00
 8.829201698303222656e+00 0.000000000000000000e+00 0.000000000000000000e+00
 8.764294624328613281e+00 5.193899944424629211e-02 0.000000000000000000e+00
 8.770785331726074219e+00 5.232730135321617126e-02 0.000000000000000000e+00
 8.777276039123535156e+00 5.271559953689575195e-02 0.000000000000000000e+00
 8.783766746520996094e+00 5.310390144586563110e-02 0.000000000000000000e+00
 8.790257453918457031e+00 5.349219962954521179e-02 0.000000000000000000e+00
 8.796748161315917969e+00 5.388050153851509094e-02 0.000000000000000000e+00
 8.803238868713378906e+00 5.426879972219467163e-02 0.000000000000000000e+00
 8.809729576110839844e+00 5.465710163116455078e-02 0.000000000000000000e+00
 8.816220283508300781e+00 5.504539981484413147e-02 0.000000000000000000e+00
 8.822710990905761719e+00 5.543370172381401062e-02 0.000000000000000000e+00
 8.829201698303222656e+00 5.582199990749359131e-02 0.000000000000000000e+00
 </DataArray>
</Points>
<Cells>
 <DataArray type="Int32" Name="connectivity" format="ascii">
 0 1 12 11
 1 2 13 12
 2 3 14 13
 3 4 15 14
 4 5 16 15
 5 6 17 16
 6 7 18 17
 7 8 19 18
 8 9 20 19
 9 10 21 20
 </DataArray>
 <DataArray type="Int32" Name="offsets" format="ascii">
 4
 8
 12
 16
 20
 24
 28
 32
 36
 40
 </DataArray>
 <DataArray type="UInt8" Name="types" format="ascii">
 9
 9
 9
 9
 9
 9
 9
 9
 9
 9
 </DataArray>
</Cells>
<CellData>
 <DataArray Name="pos.x" type="Float32" NumberOfComponents="1" format="ascii">
 8.767544378689592577e+00
 8.774035048903913392e+00
 8.780525719555502207e+00
 8.787016390636017249e+00
 8.793507062134699126e+00
 8.799997734042493747e+00
 8.806488406350197806e+00
 8.812979079051723730e+00
 8.819469752137125695e+00
 8.825960425594074010e+00
 </DataArray>
 <DataArray Name="pos.y" type="Float32" NumberOfComponents="1" format="ascii">
 2.606669550625275236e-02
 2.626084461532640982e-02
 2.645499373747818225e-02
 2.664914287242688140e-02
 2.684329201988180577e-02
 2.703744117958603935e-02
 2.723159035126999222e-02
 2.742573953468263256e-02
 2.761988872957648819e-02
 2.781403793569963215e-02
 </DataArray>
 <DataArray Name="pos.z" type="Float32" NumberOfComponents="1" format="ascii">
 0.000000000000000000e+00
 0.000000000000000000e+00
 0.000000000000000000e+00
 0.000000000000000000e+00
 0.000000000000000000e+00
 0.000000000000000000e+00
 0.000000000000000000e+00
 0.000000000000000000e+00
 0.000000000000000000e+00
 0.000000000000000000e+00
 </DataArray>
 <DataArray Name="volume" type="Float32" NumberOfComponents="1" format="ascii">
 8.820465022201000115e-06
 8.952347547213525603e-06
 9.085208719783484970e-06
 9.219048539918338884e-06
 9.353867007610631759e-06
 9.489664122860246706e-06
 9.626439885674984898e-06
 9.764194296047048549e-06
 9.902927353976322464e-06
 1.004263905947094155e-05
 </DataArray>
 <DataArray Name="rho" type="Float32" NumberOfComponents="1" format="ascii">
 6.464477148846396737e-03
 6.334593572550340813e-03
 6.208310491950004908e-03
 6.085512954886686601e-03
 5.966090140485846328e-03
 5.849935169642756123e-03
 5.736944924704986092e-03
 5.627019877920720961e-03
 5.520063928248632873e-03
 5.415984246150615071e-03
 </DataArray>
 <DataArray Name="vel.x" type="Float32" NumberOfComponents="1" format="ascii">
 1.068499592422388923e+04
 1.069528787160967295e+04
 1.070545826625995505e+04
 1.071550535549159758e+04
 1.072542746337208700e+04
 1.073522299214440318e+04
 1.074489042413319476e+04
 1.075442832409473340e+04
 1.076383534197369772e+04
 1.077311021602747678e+04
 </DataArray>
 <DataArray Name="vel.y" type="Float32" NumberOfComponents="1" format="ascii">
 3.707431351241614834e+02
 3.795192690798962190e+02
 3.879786675688342825e+02
 3.961351966575713277e+02
 4.040020479549324364e+02
 4.115917710553107440e+02
 4.189163046799714607e+02
 4.259870065548926732e+02
 4.328146820352623649e+02
 4.394096115015278201e+02
 </DataArray>
 <DataArray Name="vel.z" type="Float32" NumberOfComponents="1" format="ascii">
 0.000000000000000000e+00
 0.000000000000000000e+00
 0.000000000000000000e+00
 0.000000000000000000e+00
 0.000000000000000000e+00
 0.000000000000000000e+00
 0.000000000000000000e+00
 0.000000000000000000e+00
 0.000000000000000000e+00
 0.000000000000000000e+00
 </DataArray>
 <DataArray Name="p" type="Float32" NumberOfComponents="1" format="ascii">
 1.315251775312482641e+04
 1.284286552706286966e+04
 1.254296241411055053e+04
 1.225247598716781977e+04
 1.197108527348323150e+04
 1.169848040514321292e+04
 1.143436226678805542e+04
 1.117844214292706238e+04
 1.093044136700356830e+04
 1.069009097396325888e+04
 </DataArray>
 <DataArray Name="a" type="Float32" NumberOfComponents="1" format="ascii">
 1.602912516959005416e+03
 1.600165382174383467e+03
 1.597450285898835773e+03
 1.594768269672575343e+03
 1.592120306061181509e+03
 1.589507304517298053e+03
 1.586930116734764397e+03
 1.584389541530955057e+03
 1.581886329299864201e+03
 1.579421186071652755e+03
 </DataArray>
 <DataArray Name="mu" type="Float32" NumberOfComponents="1" format="ascii">
 1.853126952258717352e-05
 1.853126952258717352e-05
 1.853126952258717352e-05
 1.853126952258717352e-05
 1.853126952258717352e-05
 1.853126952258717352e-05
 1.853126952258717352e-05
 1.853126952258717352e-05
 1.853126952258717352e-05
 1.853126952258717352e-05
 </DataArray>
 <DataArray Name="k" type="Float32" NumberOfComponents="1" format="ascii">
 2.626199291280435430e-02
 2.626199291280435430e-02
 2.626199291280435430e-02
 2.626199291280435430e-02
 2.626199291280435430e-02
 2.626199291280435430e-02
 2.626199291280435430e-02
 2.626199291280435430e-02
 2.626199291280435430e-02
 2.626199291280435430e-02
 </DataArray>
 <DataArray Name="mu_t" type="Float32" NumberOfComponents="1" format="ascii">
 0.000000000000000000e+00
 0.000000000000000000e+00
 0.000000000000000000e+00
 0.000000000000000000e+00
 0.000000000000000000e+00
 0.000000000000000000e+00
 0.000000000000000000e+00
 0.000000000000000000e+00
 0.000000000000000000e+00
 0.000000000000000000e+00
 </DataArray>
 <DataArray Name="k_t" type="Float32" NumberOfComponents="1" format="ascii">
 0.000000000000000000e+00
 0.000000000000000000e+00
 0.000000000000000000e+00
 0.000000000000000000e+00
 0.000000000000000000e+00
 0.000000000000000000e+00
 0.000000000000000000e+00
 0.000000000000000000e+00
 0.000000000000000000e+00
 0.000000000000000000e+00
 </DataArray>
 <DataArray Name="S" type="Float32" NumberOfComponents="1" format="ascii">
 0.000000000000000000e+00
 0.000000000000000000e+00
 0.000000000000000000e+00
 0.000000000000000000e+00
 0.000000000000000000e+00
 0.000000000000000000e+00
 0.000000000000000000e+00
 0.000000000000000000e+00
 0.000000000000000000e+00
 0.000000000000000000e+00
 </DataArray>
 <DataArray Name="massf[0]-Ar" type="Float32" NumberOfComponents="1" format="ascii">
 0.000000000000000000e+00
 0.000000000000000000e+00
 0.000000000000000000e+00
 0.000000000000000000e+00
 0.000000000000000000e+00
 0.000000000000000000e+00
 0.000000000000000000e+00
 0.000000000000000000e+00
 0.000000000000000000e+00
 0.000000000000000000e+00
 </DataArray>
 <DataArray Name="massf[1]-He" type="Float32" NumberOfComponents="1" format="ascii">
 2.823698056378427888e-03
 2.793914435161885899e-03
 2.764476254323158105e-03
 2.735377045658936475e-03
 2.706610457905395811e-03
 2.678170256045562473e-03
 2.650050320675962062e-03
 2.622244647440248686e-03
 2.594747346525752649e-03
 2.567552642221178436e-03
 </DataArray>
 <DataArray Name="massf[2]-N" type="Float32" NumberOfComponents="1" format="ascii">
 0.000000000000000000e+00
 0.000000000000000000e+00
 0.000000000000000000e+00
 0.000000000000000000e+00
 0.000000000000000000e+00
 0.000000000000000000e+00
 0.000000000000000000e+00
 0.000000000000000000e+00
 0.000000000000000000e+00
 0.000000000000000000e+00
 </DataArray>
 <DataArray Name="massf[3]-N2" type="Float32" NumberOfComponents="1" format="ascii">
 7.541921472147036232e-01
 7.542146733950725324e-01
 7.542369383092845103e-01
 7.542589468494212968e-01
 7.542807038191199354e-01
 7.543022139340979093e-01
 7.543234818226294269e-01
 7.543445120259761882e-01
 7.543653089987669702e-01
 7.543858771093332471e-01
 </DataArray>
 <DataArray Name="massf[4]-NO" type="Float32" NumberOfComponents="1" format="ascii">
 0.000000000000000000e+00
 0.000000000000000000e+00
 0.000000000000000000e+00
 0.000000000000000000e+00
 0.000000000000000000e+00
 0.000000000000000000e+00
 0.000000000000000000e+00
 0.000000000000000000e+00
 0.000000000000000000e+00
 0.000000000000000000e+00
 </DataArray>
 <DataArray Name="massf[5]-O" type="Float32" NumberOfComponents="1" format="ascii">
 0.000000000000000000e+00
 0.000000000000000000e+00
 0.000000000000000000e+00
 0.000000000000000000e+00
 0.000000000000000000e+00
 0.000000000000000000e+00
 0.000000000000000000e+00
 0.000000000000000000e+00
 0.000000000000000000e+00
 0.000000000000000000e+00
 </DataArray>
 <DataArray Name="massf[6]-O2" type="Float32" NumberOfComponents="1" format="ascii">
 2.429841547289179338e-01
 2.429914121697656360e-01
 2.429985854363925502e-01
 2.430056761049200209e-01
 2.430126857229744919e-01
 2.430196158098565651e-01
 2.430264678566947112e-01
 2.430332433265836867e-01
 2.430399436547071856e-01
 2.430465702484455037e-01
 </DataArray>
 <DataArray Name="dt_chem" type="Float32" NumberOfComponents="1" format="ascii">
 -1.000000000000000000e+00
 -1.000000000000000000e+00
 -1.000000000000000000e+00
 -1.000000000000000000e+00
 -1.000000000000000000e+00
 -1.000000000000000000e+00
 -1.000000000000000000e+00
 -1.000000000000000000e+00
 -1.000000000000000000e+00
 -1.000000000000000000e+00
 </DataArray>
 <DataArray Name="u" type="Float32" NumberOfComponents="1" format="ascii">
 6.621718274528060108e+06
 6.595464246087603271e+06
 6.569583171876643784e+06
 6.544082778877983801e+06
 6.518970075103229843e+06
 6.494251419347500429e+06
 6.469932584427898750e+06
 6.446018814468750730e+06
 6.422514876758122817e+06
 6.399425108701262623e+06
 </DataArray>
 <DataArray Name="T" type="Float32" NumberOfComponents="1" format="ascii">
 6.947528074520082555e+03
 6.924318632236618214e+03
 6.901423856248075936e+03
 6.878851521026235787e+03
 6.856608750090640569e+03
 6.834702076724342987e+03
 6.813137499175985795e+03
 6.791920530770577898e+03
 6.771056245404291076e+03
 6.750549318827782372e+03
 </DataArray>
 <DataArray Name="vel.vector" type="Float32" NumberOfComponents="3" format="ascii">
 1.068499609375000000e+04 3.707431335449218750e+02 0.000000000000000000e+00
 1.069528808593750000e+04 3.795192565917968750e+02 0.000000000000000000e+00
 1.070545800781250000e+04 3.879786682128906250e+02 0.000000000000000000e+00
 1.071550488281250000e+04 3.961351928710937500e+02 0.000000000000000000e+00
 1.072542773437500000e+04 4.040020446777343750e+02 0.000000000000000000e+00
 1.073522265625000000e+04 4.115917663574218750e+02 0.000000000000000000e+00
 1.074489062500000000e+04 4.189162902832031250e+02 0.000000000000000000e+00
 1.075442871093750000e+04 4.259869995117187500e+02 0.000000000000000000e+00
 1.076383496093750000e+04 4.328146972656250000e+02 0.000000000000000000e+00
 1.077311035156250000e+04 4.394096069335937500e+02 0.000000000000000000e+00
 </DataArray>
</CellData>
</Piece>
</UnstructuredGrid>
</VTKFile>
