<VTKFile type="UnstructuredGrid" byte_order="BigEndian">
<UnstructuredGrid><Piece NumberOfPoints="16" NumberOfCells="7">
<Points>
 <DataArray type="Float32" NumberOfComponents="3" format="ascii">
 8.664767265319824219e+00 0.000000000000000000e+00 0.000000000000000000e+00
 8.671205520629882812e+00 0.000000000000000000e+00 0.000000000000000000e+00
 8.677643775939941406e+00 0.000000000000000000e+00 0.000000000000000000e+00
 8.684082031250000000e+00 0.000000000000000000e+00 0.000000000000000000e+00
 8.690520286560058594e+00 0.000000000000000000e+00 0.000000000000000000e+00
 8.696959495544433594e+00 0.000000000000000000e+00 0.000000000000000000e+00
 8.703397750854492188e+00 0.000000000000000000e+00 0.000000000000000000e+00
 8.709836006164550781e+00 0.000000000000000000e+00 0.000000000000000000e+00
 8.664767265319824219e+00 4.647799953818321228e-02 0.000000000000000000e+00
 8.671205520629882812e+00 4.681571573019027710e-02 0.000000000000000000e+00
 8.677643775939941406e+00 4.715342819690704346e-02 0.000000000000000000e+00
 8.684082031250000000e+00 4.749114438891410828e-02 0.000000000000000000e+00
 8.690520286560058594e+00 4.782885685563087463e-02 0.000000000000000000e+00
 8.696959495544433594e+00 4.816657304763793945e-02 0.000000000000000000e+00
 8.703397750854492188e+00 4.850428551435470581e-02 0.000000000000000000e+00
 8.709836006164550781e+00 4.884200170636177063e-02 0.000000000000000000e+00
 </DataArray>
</Points>
<Cells>
 <DataArray type="Int32" Name="connectivity" format="ascii">
 0 1 9 8
 1 2 10 9
 2 3 11 10
 3 4 12 11
 4 5 13 12
 5 6 14 13
 6 7 15 14
 </DataArray>
 <DataArray type="Int32" Name="offsets" format="ascii">
 4
 8
 12
 16
 20
 24
 28
 </DataArray>
 <DataArray type="UInt8" Name="types" format="ascii">
 9
 9
 9
 9
 9
 9
 9
 </DataArray>
</Cells>
<CellData>
 <DataArray Name="pos.x" type="Float32" NumberOfComponents="1" format="ascii">
 8.667990098700538937e+00
 8.674428499350808508e+00
 8.680866900402671504e+00
 8.687305301842005889e+00
 8.693743703661146682e+00
 8.700182105857955150e+00
 8.706620508420543914e+00
 </DataArray>
 <DataArray Name="pos.y" type="Float32" NumberOfComponents="1" format="ascii">
 2.332353044586691834e-02
 2.349238685647320191e-02
 2.366124327753722431e-02
 2.383009970882206743e-02
 2.399895615011775341e-02
 2.416781260122772071e-02
 2.433666906193270724e-02
 </DataArray>
 <DataArray Name="pos.z" type="Float32" NumberOfComponents="1" format="ascii">
 0.000000000000000000e+00
 0.000000000000000000e+00
 0.000000000000000000e+00
 0.000000000000000000e+00
 0.000000000000000000e+00
 0.000000000000000000e+00
 0.000000000000000000e+00
 </DataArray>
 <DataArray Name="volume" type="Float32" NumberOfComponents="1" format="ascii">
 7.004813223285333683e-06
 7.106606939160060151e-06
 7.209134963851684877e-06
 7.312397297374076333e-06
 7.416393939713255086e-06
 7.521124890877262867e-06
 7.626590150864081196e-06
 </DataArray>
 <DataArray Name="rho" type="Float32" NumberOfComponents="1" format="ascii">
 7.088674726954874439e-03
 6.958536297053623428e-03
 6.831882308326153730e-03
 6.708587337906717595e-03
 6.588530118677339217e-03
 6.471593394369163504e-03
 6.357663782811900748e-03
 </DataArray>
 <DataArray Name="vel.x" type="Float32" NumberOfComponents="1" format="ascii">
 1.080830396891075179e+04
 1.081533652431973132e+04
 1.082223109681433561e+04
 1.082898866427248686e+04
 1.083561047878620593e+04
 1.084209805657208199e+04
 1.084845316739633199e+04
 </DataArray>
 <DataArray Name="vel.y" type="Float32" NumberOfComponents="1" format="ascii">
 2.148113172080701361e+02
 2.275678100287575489e+02
 2.398344770366963985e+02
 2.516318981525137133e+02
 2.629797877662135761e+02
 2.738970247781129501e+02
 2.844016827962589673e+02
 </DataArray>
 <DataArray Name="vel.z" type="Float32" NumberOfComponents="1" format="ascii">
 0.000000000000000000e+00
 0.000000000000000000e+00
 0.000000000000000000e+00
 0.000000000000000000e+00
 0.000000000000000000e+00
 0.000000000000000000e+00
 0.000000000000000000e+00
 </DataArray>
 <DataArray Name="p" type="Float32" NumberOfComponents="1" format="ascii">
 1.561065655954860085e+04
 1.529433566153769243e+04
 1.498743384801495267e+04
 1.468963863103920448e+04
 1.440064476394049598e+04
 1.412015445854387326e+04
 1.384787754983459126e+04
 </DataArray>
 <DataArray Name="a" type="Float32" NumberOfComponents="1" format="ascii">
 1.663886229457473519e+03
 1.662333238193930129e+03
 1.660813197816655247e+03
 1.659328538612378452e+03
 1.657881545968391265e+03
 1.656474374570449072e+03
 1.655109061881112211e+03
 </DataArray>
 <DataArray Name="mu" type="Float32" NumberOfComponents="1" format="ascii">
 1.853126952258717352e-05
 1.853126952258717352e-05
 1.853126952258717352e-05
 1.853126952258717352e-05
 1.853126952258717352e-05
 1.853126952258717352e-05
 1.853126952258717352e-05
 </DataArray>
 <DataArray Name="k" type="Float32" NumberOfComponents="1" format="ascii">
 2.626199291280435430e-02
 2.626199291280435430e-02
 2.626199291280435430e-02
 2.626199291280435430e-02
 2.626199291280435430e-02
 2.626199291280435430e-02
 2.626199291280435430e-02
 </DataArray>
 <DataArray Name="mu_t" type="Float32" NumberOfComponents="1" format="ascii">
 0.000000000000000000e+00
 0.000000000000000000e+00
 0.000000000000000000e+00
 0.000000000000000000e+00
 0.000000000000000000e+00
 0.000000000000000000e+00
 0.000000000000000000e+00
 </DataArray>
 <DataArray Name="k_t" type="Float32" NumberOfComponents="1" format="ascii">
 0.000000000000000000e+00
 0.000000000000000000e+00
 0.000000000000000000e+00
 0.000000000000000000e+00
 0.000000000000000000e+00
 0.000000000000000000e+00
 0.000000000000000000e+00
 </DataArray>
 <DataArray Name="S" type="Float32" NumberOfComponents="1" format="ascii">
 0.000000000000000000e+00
 0.000000000000000000e+00
 0.000000000000000000e+00
 0.000000000000000000e+00
 0.000000000000000000e+00
 0.000000000000000000e+00
 0.000000000000000000e+00
 </DataArray>
 <DataArray Name="massf[0]-Ar" type="Float32" NumberOfComponents="1" format="ascii">
 0.000000000000000000e+00
 0.000000000000000000e+00
 0.000000000000000000e+00
 0.000000000000000000e+00
 0.000000000000000000e+00
 0.000000000000000000e+00
 0.000000000000000000e+00
 </DataArray>
 <DataArray Name="massf[1]-He" type="Float32" NumberOfComponents="1" format="ascii">
 1.938093428886341263e-03
 1.917049837392792574e-03
 1.896206140158549153e-03
 1.875559036324212468e-03
 1.855105341207650364e-03
 1.834841985461921517e-03
 1.814766014079659739e-03
 </DataArray>
 <DataArray Name="massf[2]-N" type="Float32" NumberOfComponents="1" format="ascii">
 0.000000000000000000e+00
 0.000000000000000000e+00
 0.000000000000000000e+00
 0.000000000000000000e+00
 0.000000000000000000e+00
 0.000000000000000000e+00
 0.000000000000000000e+00
 </DataArray>
 <DataArray Name="massf[3]-N2" type="Float32" NumberOfComponents="1" format="ascii">
 7.548619546041199779e-01
 7.548778704571369458e-01
 7.548936351245706389e-01
 7.549092511029531494e-01
 7.549247208009476351e-01
 7.549400465399869198e-01
 7.549552305550246700e-01
 </DataArray>
 <DataArray Name="massf[4]-NO" type="Float32" NumberOfComponents="1" format="ascii">
 0.000000000000000000e+00
 0.000000000000000000e+00
 0.000000000000000000e+00
 0.000000000000000000e+00
 0.000000000000000000e+00
 0.000000000000000000e+00
 0.000000000000000000e+00
 </DataArray>
 <DataArray Name="massf[5]-O" type="Float32" NumberOfComponents="1" format="ascii">
 0.000000000000000000e+00
 0.000000000000000000e+00
 0.000000000000000000e+00
 0.000000000000000000e+00
 0.000000000000000000e+00
 0.000000000000000000e+00
 0.000000000000000000e+00
 </DataArray>
 <DataArray Name="massf[6]-O2" type="Float32" NumberOfComponents="1" format="ascii">
 2.431999519669937049e-01
 2.432050797054704228e-01
 2.432101587352708816e-01
 2.432151898607228524e-01
 2.432201738578447792e-01
 2.432251114745513088e-01
 2.432300034308955694e-01
 </DataArray>
 <DataArray Name="dt_chem" type="Float32" NumberOfComponents="1" format="ascii">
 -1.000000000000000000e+00
 -1.000000000000000000e+00
 -1.000000000000000000e+00
 -1.000000000000000000e+00
 -1.000000000000000000e+00
 -1.000000000000000000e+00
 -1.000000000000000000e+00
 </DataArray>
 <DataArray Name="u" type="Float32" NumberOfComponents="1" format="ascii">
 7.297877789209568873e+06
 7.282062714644735679e+06
 7.266621614761757664e+06
 7.251578945361815393e+06
 7.236957482321454212e+06
 7.222778499672253616e+06
 7.209061937599141151e+06
 </DataArray>
 <DataArray Name="T" type="Float32" NumberOfComponents="1" format="ascii">
 7.560796090698726402e+03
 7.547103017119564356e+03
 7.533730617127359437e+03
 7.520701071574126217e+03
 7.508035096857287499e+03
 7.495752096579364661e+03
 7.483870304937261608e+03
 </DataArray>
 <DataArray Name="vel.vector" type="Float32" NumberOfComponents="3" format="ascii">
 1.080830371093750000e+04 2.148113098144531250e+02 0.000000000000000000e+00
 1.081533691406250000e+04 2.275678100585937500e+02 0.000000000000000000e+00
 1.082223144531250000e+04 2.398344726562500000e+02 0.000000000000000000e+00
 1.082898828125000000e+04 2.516318969726562500e+02 0.000000000000000000e+00
 1.083561035156250000e+04 2.629797973632812500e+02 0.000000000000000000e+00
 1.084209765625000000e+04 2.738970336914062500e+02 0.000000000000000000e+00
 1.084845312500000000e+04 2.844016723632812500e+02 0.000000000000000000e+00
 </DataArray>
</CellData>
</Piece>
</UnstructuredGrid>
</VTKFile>
