<VTKFile type="UnstructuredGrid" byte_order="BigEndian">
<UnstructuredGrid><Piece NumberOfPoints="60" NumberOfCells="29">
<Points>
 <DataArray type="Float32" NumberOfComponents="3" format="ascii">
 9.634305953979492188e+00 0.000000000000000000e+00 0.000000000000000000e+00
 9.640802383422851562e+00 0.000000000000000000e+00 0.000000000000000000e+00
 9.647297859191894531e+00 0.000000000000000000e+00 0.000000000000000000e+00
 9.653794288635253906e+00 0.000000000000000000e+00 0.000000000000000000e+00
 9.660289764404296875e+00 0.000000000000000000e+00 0.000000000000000000e+00
 9.666786193847656250e+00 0.000000000000000000e+00 0.000000000000000000e+00
 9.673281669616699219e+00 0.000000000000000000e+00 0.000000000000000000e+00
 9.679778099060058594e+00 0.000000000000000000e+00 0.000000000000000000e+00
 9.686273574829101562e+00 0.000000000000000000e+00 0.000000000000000000e+00
 9.692770004272460938e+00 0.000000000000000000e+00 0.000000000000000000e+00
 9.699266433715820312e+00 0.000000000000000000e+00 0.000000000000000000e+00
 9.705761909484863281e+00 0.000000000000000000e+00 0.000000000000000000e+00
 9.712258338928222656e+00 0.000000000000000000e+00 0.000000000000000000e+00
 9.718753814697265625e+00 0.000000000000000000e+00 0.000000000000000000e+00
 9.725250244140625000e+00 0.000000000000000000e+00 0.000000000000000000e+00
 9.731745719909667969e+00 0.000000000000000000e+00 0.000000000000000000e+00
 9.738242149353027344e+00 0.000000000000000000e+00 0.000000000000000000e+00
 9.744737625122070312e+00 0.000000000000000000e+00 0.000000000000000000e+00
 9.751234054565429688e+00 0.000000000000000000e+00 0.000000000000000000e+00
 9.757729530334472656e+00 0.000000000000000000e+00 0.000000000000000000e+00
 9.764225959777832031e+00 0.000000000000000000e+00 0.000000000000000000e+00
 9.770722389221191406e+00 0.000000000000000000e+00 0.000000000000000000e+00
 9.777217864990234375e+00 0.000000000000000000e+00 0.000000000000000000e+00
 9.783714294433593750e+00 0.000000000000000000e+00 0.000000000000000000e+00
 9.790209770202636719e+00 0.000000000000000000e+00 0.000000000000000000e+00
 9.796706199645996094e+00 0.000000000000000000e+00 0.000000000000000000e+00
 9.803201675415039062e+00 0.000000000000000000e+00 0.000000000000000000e+00
 9.809698104858398438e+00 0.000000000000000000e+00 0.000000000000000000e+00
 9.816193580627441406e+00 0.000000000000000000e+00 0.000000000000000000e+00
 9.822690010070800781e+00 0.000000000000000000e+00 0.000000000000000000e+00
 9.634305953979492188e+00 9.674900025129318237e-02 0.000000000000000000e+00
 9.640802383422851562e+00 9.685514122247695923e-02 0.000000000000000000e+00
 9.647297859191894531e+00 9.696127474308013916e-02 0.000000000000000000e+00
 9.653794288635253906e+00 9.706741571426391602e-02 0.000000000000000000e+00
 9.660289764404296875e+00 9.717354923486709595e-02 0.000000000000000000e+00
 9.666786193847656250e+00 9.727969020605087280e-02 0.000000000000000000e+00
 9.673281669616699219e+00 9.738583117723464966e-02 0.000000000000000000e+00
 9.679778099060058594e+00 9.749196469783782959e-02 0.000000000000000000e+00
 9.686273574829101562e+00 9.759810566902160645e-02 0.000000000000000000e+00
 9.692770004272460938e+00 9.770423918962478638e-02 0.000000000000000000e+00
 9.699266433715820312e+00 9.781038016080856323e-02 0.000000000000000000e+00
 9.705761909484863281e+00 9.791651368141174316e-02 0.000000000000000000e+00
 9.712258338928222656e+00 9.802265465259552002e-02 0.000000000000000000e+00
 9.718753814697265625e+00 9.812879562377929688e-02 0.000000000000000000e+00
 9.725250244140625000e+00 9.823492914438247681e-02 0.000000000000000000e+00
 9.731745719909667969e+00 9.834107011556625366e-02 0.000000000000000000e+00
 9.738242149353027344e+00 9.844720363616943359e-02 0.000000000000000000e+00
 9.744737625122070312e+00 9.855334460735321045e-02 0.000000000000000000e+00
 9.751234054565429688e+00 9.865948557853698730e-02 0.000000000000000000e+00
 9.757729530334472656e+00 9.876561909914016724e-02 0.000000000000000000e+00
 9.764225959777832031e+00 9.887176007032394409e-02 0.000000000000000000e+00
 9.770722389221191406e+00 9.897789359092712402e-02 0.000000000000000000e+00
 9.777217864990234375e+00 9.908403456211090088e-02 0.000000000000000000e+00
 9.783714294433593750e+00 9.919017553329467773e-02 0.000000000000000000e+00
 9.790209770202636719e+00 9.929630905389785767e-02 0.000000000000000000e+00
 9.796706199645996094e+00 9.940245002508163452e-02 0.000000000000000000e+00
 9.803201675415039062e+00 9.950858354568481445e-02 0.000000000000000000e+00
 9.809698104858398438e+00 9.961472451686859131e-02 0.000000000000000000e+00
 9.816193580627441406e+00 9.972086548805236816e-02 0.000000000000000000e+00
 9.822690010070800781e+00 9.982699900865554810e-02 0.000000000000000000e+00
 </DataArray>
</Points>
<Cells>
 <DataArray type="Int32" Name="connectivity" format="ascii">
 0 1 31 30
 1 2 32 31
 2 3 33 32
 3 4 34 33
 4 5 35 34
 5 6 36 35
 6 7 37 36
 7 8 38 37
 8 9 39 38
 9 10 40 39
 10 11 41 40
 11 12 42 41
 12 13 43 42
 13 14 44 43
 14 15 45 44
 15 16 46 45
 16 17 47 46
 17 18 48 47
 18 19 49 48
 19 20 50 49
 20 21 51 50
 21 22 52 51
 22 23 53 52
 23 24 54 53
 24 25 55 54
 25 26 56 55
 26 27 57 56
 27 28 58 57
 28 29 59 58
 </DataArray>
 <DataArray type="Int32" Name="offsets" format="ascii">
 4
 8
 12
 16
 20
 24
 28
 32
 36
 40
 44
 48
 52
 56
 60
 64
 68
 72
 76
 80
 84
 88
 92
 96
 100
 104
 108
 112
 116
 </DataArray>
 <DataArray type="UInt8" Name="types" format="ascii">
 9
 9
 9
 9
 9
 9
 9
 9
 9
 9
 9
 9
 9
 9
 9
 9
 9
 9
 9
 9
 9
 9
 9
 9
 9
 9
 9
 9
 9
 </DataArray>
</Cells>
<CellData>
 <DataArray Name="pos.x" type="Float32" NumberOfComponents="1" format="ascii">
 9.637554593541606707e+00
 9.644050592891172613e+00
 9.650546592243378186e+00
 9.657042591594368730e+00
 9.663538590949091400e+00
 9.670034590306645583e+00
 9.676530589661362924e+00
 9.683026589018602692e+00
 9.689522588379832158e+00
 9.696018587742422312e+00
 9.702514587104422716e+00
 9.709010586468377113e+00
 9.715506585833162845e+00
 9.722002585197875746e+00
 9.728498584568148644e+00
 9.734994583937476520e+00
 9.741490583310163487e+00
 9.747986582679285306e+00
 9.754482582051444695e+00
 9.760978581429268885e+00
 9.767474580805972195e+00
 9.773970580182480106e+00
 9.780466579561398532e+00
 9.786962578939201407e+00
 9.793458578321844854e+00
 9.799954577706429859e+00
 9.806450577089892207e+00
 9.812946576476331728e+00
 9.819442575860581002e+00
 </DataArray>
 <DataArray Name="pos.y" type="Float32" NumberOfComponents="1" format="ascii">
 4.840103933168554695e-02
 4.845410829188747520e-02
 4.850717725211129566e-02
 4.856024621233163974e-02
 4.861331517257863610e-02
 4.866638413282865089e-02
 4.871945309309571454e-02
 4.877252205336865543e-02
 4.882559101365198384e-02
 4.887865997396376866e-02
 4.893172893426122466e-02
 4.898479789459075223e-02
 4.903786685492044634e-02
 4.909093581525045963e-02
 4.914400477562334141e-02
 4.919707373598539851e-02
 4.925014269636711350e-02
 4.930321165674278472e-02
 4.935628061714162490e-02
 4.940934957756138585e-02
 4.946241853797861410e-02
 4.951548749840672253e-02
 4.956855645885428763e-02
 4.962162541929915349e-02
 4.967469437976990837e-02
 4.972776334024490291e-02
 4.978083230073061111e-02
 4.983390126122862890e-02
 4.988697022173225332e-02
 </DataArray>
 <DataArray Name="pos.z" type="Float32" NumberOfComponents="1" format="ascii">
 0.000000000000000000e+00
 0.000000000000000000e+00
 0.000000000000000000e+00
 0.000000000000000000e+00
 0.000000000000000000e+00
 0.000000000000000000e+00
 0.000000000000000000e+00
 0.000000000000000000e+00
 0.000000000000000000e+00
 0.000000000000000000e+00
 0.000000000000000000e+00
 0.000000000000000000e+00
 0.000000000000000000e+00
 0.000000000000000000e+00
 0.000000000000000000e+00
 0.000000000000000000e+00
 0.000000000000000000e+00
 0.000000000000000000e+00
 0.000000000000000000e+00
 0.000000000000000000e+00
 0.000000000000000000e+00
 0.000000000000000000e+00
 0.000000000000000000e+00
 0.000000000000000000e+00
 0.000000000000000000e+00
 0.000000000000000000e+00
 0.000000000000000000e+00
 0.000000000000000000e+00
 0.000000000000000000e+00
 </DataArray>
 <DataArray Name="volume" type="Float32" NumberOfComponents="1" format="ascii">
 3.043584357504356484e-05
 3.050262248068648992e-05
 3.056947456549436240e-05
 3.063639982939200980e-05
 3.070339827246311220e-05
 3.077046989466588039e-05
 3.083761469594970922e-05
 3.090483267641568022e-05
 3.097212383599636957e-05
 3.103948817470865695e-05
 3.110692569255251523e-05
 3.117443638951944022e-05
 3.124202026564354363e-05
 3.130967732086506559e-05
 3.137740755524383372e-05
 3.144521096874562790e-05
 3.151308756137901333e-05
 3.158103733314397644e-05
 3.164906028403187074e-05
 3.171715641406867641e-05
 3.178532572322841326e-05
 3.185356821151971425e-05
 3.192188387894260649e-05
 3.199027272548835536e-05
 3.205873475119193995e-05
 3.212726995600083743e-05
 3.219587833994127195e-05
 3.226455990303090922e-05
 3.233331464524332182e-05
 </DataArray>
 <DataArray Name="rho" type="Float32" NumberOfComponents="1" format="ascii">
 7.743772136987570704e-04
 7.693448819301592582e-04
 7.687963300209774272e-04
 7.745040483742608381e-04
 7.886997100467235851e-04
 8.139127319475648100e-04
 8.525279658336953068e-04
 9.060066769520472600e-04
 9.739060418373912675e-04
 1.053108553526198483e-03
 1.137805710524666209e-03
 1.220514648776395254e-03
 1.293817120327493469e-03
 1.352067925619818839e-03
 1.392404314091449111e-03
 1.414863091830572371e-03
 1.421796133615322710e-03
 1.416669747480877933e-03
 1.402963580658725005e-03
 1.383724093876833629e-03
 1.361423101379392788e-03
 1.337970505159526147e-03
 1.314795955516641184e-03
 1.292947085973878210e-03
 1.273178453877974294e-03
 1.256022078636625725e-03
 1.241839259528737917e-03
 1.230856976624205342e-03
 1.223192990705936675e-03
 </DataArray>
 <DataArray Name="vel.x" type="Float32" NumberOfComponents="1" format="ascii">
 1.150152031870015890e+04
 1.148857397852729446e+04
 1.146211636261944841e+04
 1.141598638305784698e+04
 1.134250652188322783e+04
 1.123347241731938084e+04
 1.108237441548517199e+04
 1.088751135731254362e+04
 1.065449360366997462e+04
 1.039620136991547224e+04
 1.012965369478541470e+04
 9.871450273981010469e+03
 9.634207064472415368e+03
 9.425230952607711515e+03
 9.247119149936970643e+03
 9.099236332932945515e+03
 8.978504667105742556e+03
 8.879863661775758374e+03
 8.798445155685114514e+03
 8.730224250915947778e+03
 8.672062308329808729e+03
 8.621618266343979485e+03
 8.577198950445414084e+03
 8.537598933229888644e+03
 8.501956826291476318e+03
 8.469639740706717930e+03
 8.440158452566449341e+03
 8.413110449148645785e+03
 8.388145187151305436e+03
 </DataArray>
 <DataArray Name="vel.y" type="Float32" NumberOfComponents="1" format="ascii">
 4.787057846117679105e+02
 4.713137277963733140e+02
 4.637067544784271718e+02
 4.557183144549438225e+02
 4.471324535136351415e+02
 4.376983259847870045e+02
 4.271732564831939953e+02
 4.153934618768985843e+02
 4.023462262440922359e+02
 3.882000174932265395e+02
 3.732680574763203367e+02
 3.579263515257159725e+02
 3.425376882569252643e+02
 3.274035427090296935e+02
 3.127533373846629843e+02
 2.987535435441893696e+02
 2.854961977062984602e+02
 2.730205112435722299e+02
 2.613411068830811814e+02
 2.504565622291932243e+02
 2.403545392000463607e+02
 2.310146072979596283e+02
 2.224096753692341792e+02
 2.145066227812642694e+02
 2.072665326548112148e+02
 2.006447857427291126e+02
 1.945911791433099438e+02
 1.890501624185978073e+02
 1.839612234225843395e+02
 </DataArray>
 <DataArray Name="vel.z" type="Float32" NumberOfComponents="1" format="ascii">
 0.000000000000000000e+00
 0.000000000000000000e+00
 0.000000000000000000e+00
 0.000000000000000000e+00
 0.000000000000000000e+00
 0.000000000000000000e+00
 0.000000000000000000e+00
 0.000000000000000000e+00
 0.000000000000000000e+00
 0.000000000000000000e+00
 0.000000000000000000e+00
 0.000000000000000000e+00
 0.000000000000000000e+00
 0.000000000000000000e+00
 0.000000000000000000e+00
 0.000000000000000000e+00
 0.000000000000000000e+00
 0.000000000000000000e+00
 0.000000000000000000e+00
 0.000000000000000000e+00
 0.000000000000000000e+00
 0.000000000000000000e+00
 0.000000000000000000e+00
 0.000000000000000000e+00
 0.000000000000000000e+00
 0.000000000000000000e+00
 0.000000000000000000e+00
 0.000000000000000000e+00
 0.000000000000000000e+00
 </DataArray>
 <DataArray Name="p" type="Float32" NumberOfComponents="1" format="ascii">
 2.338903133572109709e+03
 2.368715200073867436e+03
 2.419201493128508901e+03
 2.500274354823348858e+03
 2.625447456085841623e+03
 2.811726141872028165e+03
 3.077948594861523361e+03
 3.440880010254186345e+03
 3.909367922396182166e+03
 4.478524943039146820e+03
 5.127028118830065068e+03
 5.819886443604094893e+03
 6.516302591418274460e+03
 7.179292361783800516e+03
 7.782816067365713025e+03
 8.312617023470200365e+03
 8.755977996613419236e+03
 9.119110292243009098e+03
 9.414906340235165771e+03
 9.656225754138593402e+03
 9.854246806273593393e+03
 1.001792490756883126e+04
 1.015409126947297773e+04
 1.026783762742216277e+04
 1.036296627186101796e+04
 1.044239049990796593e+04
 1.050844019793078223e+04
 1.056306709330702688e+04
 1.060796391640241018e+04
 </DataArray>
 <DataArray Name="a" type="Float32" NumberOfComponents="1" format="ascii">
 1.916473847525220435e+03
 1.932287459032617335e+03
 1.950381209822834307e+03
 1.971794285309360703e+03
 1.997831727459146123e+03
 2.029879151686947125e+03
 2.069020151001907834e+03
 2.115590520455052228e+03
 2.168974358226081222e+03
 2.227854311945605332e+03
 2.290777584825657868e+03
 2.356672115139494053e+03
 2.425047621089932363e+03
 2.495811581476090396e+03
 2.568647702166068484e+03
 2.638799362960482540e+03
 2.701621648481830562e+03
 2.762033534849783791e+03
 2.820122642684941638e+03
 2.875797754677116245e+03
 2.928807217429150569e+03
 2.978773976176874385e+03
 3.025238992565176432e+03
 3.067707738727083779e+03
 3.105695944809844605e+03
 3.138771528925996790e+03
 3.166590103364762854e+03
 3.188921935886141455e+03
 3.205668909077534863e+03
 </DataArray>
 <DataArray Name="mu" type="Float32" NumberOfComponents="1" format="ascii">
 1.853126952258717352e-05
 1.853126952258717352e-05
 1.853126952258717352e-05
 1.853126952258717352e-05
 1.853126952258717352e-05
 1.853126952258717352e-05
 1.853126952258717352e-05
 1.853126952258717352e-05
 1.853126952258717352e-05
 1.853126952258717352e-05
 1.853126952258717352e-05
 1.853126952258717352e-05
 1.853126952258717352e-05
 1.853126952258717352e-05
 1.853126952258717352e-05
 1.853126952258717352e-05
 1.853126952258717352e-05
 1.853126952258717352e-05
 1.853126952258717352e-05
 1.853126952258717352e-05
 1.853126952258717352e-05
 1.853126952258717352e-05
 1.853126952258717352e-05
 1.853126952258717352e-05
 1.853126952258717352e-05
 1.853126952258717352e-05
 1.853126952258717352e-05
 1.853126952258717352e-05
 1.853126952258717352e-05
 </DataArray>
 <DataArray Name="k" type="Float32" NumberOfComponents="1" format="ascii">
 2.626199291280435430e-02
 2.626199291280435430e-02
 2.626199291280435430e-02
 2.626199291280435430e-02
 2.626199291280435430e-02
 2.626199291280435430e-02
 2.626199291280435430e-02
 2.626199291280435430e-02
 2.626199291280435430e-02
 2.626199291280435430e-02
 2.626199291280435430e-02
 2.626199291280435430e-02
 2.626199291280435430e-02
 2.626199291280435430e-02
 2.626199291280435430e-02
 2.626199291280435430e-02
 2.626199291280435430e-02
 2.626199291280435430e-02
 2.626199291280435430e-02
 2.626199291280435430e-02
 2.626199291280435430e-02
 2.626199291280435430e-02
 2.626199291280435430e-02
 2.626199291280435430e-02
 2.626199291280435430e-02
 2.626199291280435430e-02
 2.626199291280435430e-02
 2.626199291280435430e-02
 2.626199291280435430e-02
 </DataArray>
 <DataArray Name="mu_t" type="Float32" NumberOfComponents="1" format="ascii">
 0.000000000000000000e+00
 0.000000000000000000e+00
 0.000000000000000000e+00
 0.000000000000000000e+00
 0.000000000000000000e+00
 0.000000000000000000e+00
 0.000000000000000000e+00
 0.000000000000000000e+00
 0.000000000000000000e+00
 0.000000000000000000e+00
 0.000000000000000000e+00
 0.000000000000000000e+00
 0.000000000000000000e+00
 0.000000000000000000e+00
 0.000000000000000000e+00
 0.000000000000000000e+00
 0.000000000000000000e+00
 0.000000000000000000e+00
 0.000000000000000000e+00
 0.000000000000000000e+00
 0.000000000000000000e+00
 0.000000000000000000e+00
 0.000000000000000000e+00
 0.000000000000000000e+00
 0.000000000000000000e+00
 0.000000000000000000e+00
 0.000000000000000000e+00
 0.000000000000000000e+00
 0.000000000000000000e+00
 </DataArray>
 <DataArray Name="k_t" type="Float32" NumberOfComponents="1" format="ascii">
 0.000000000000000000e+00
 0.000000000000000000e+00
 0.000000000000000000e+00
 0.000000000000000000e+00
 0.000000000000000000e+00
 0.000000000000000000e+00
 0.000000000000000000e+00
 0.000000000000000000e+00
 0.000000000000000000e+00
 0.000000000000000000e+00
 0.000000000000000000e+00
 0.000000000000000000e+00
 0.000000000000000000e+00
 0.000000000000000000e+00
 0.000000000000000000e+00
 0.000000000000000000e+00
 0.000000000000000000e+00
 0.000000000000000000e+00
 0.000000000000000000e+00
 0.000000000000000000e+00
 0.000000000000000000e+00
 0.000000000000000000e+00
 0.000000000000000000e+00
 0.000000000000000000e+00
 0.000000000000000000e+00
 0.000000000000000000e+00
 0.000000000000000000e+00
 0.000000000000000000e+00
 0.000000000000000000e+00
 </DataArray>
 <DataArray Name="S" type="Float32" NumberOfComponents="1" format="ascii">
 0.000000000000000000e+00
 0.000000000000000000e+00
 0.000000000000000000e+00
 0.000000000000000000e+00
 0.000000000000000000e+00
 0.000000000000000000e+00
 0.000000000000000000e+00
 0.000000000000000000e+00
 0.000000000000000000e+00
 0.000000000000000000e+00
 0.000000000000000000e+00
 0.000000000000000000e+00
 0.000000000000000000e+00
 0.000000000000000000e+00
 0.000000000000000000e+00
 0.000000000000000000e+00
 0.000000000000000000e+00
 0.000000000000000000e+00
 0.000000000000000000e+00
 0.000000000000000000e+00
 0.000000000000000000e+00
 0.000000000000000000e+00
 0.000000000000000000e+00
 0.000000000000000000e+00
 0.000000000000000000e+00
 0.000000000000000000e+00
 0.000000000000000000e+00
 0.000000000000000000e+00
 0.000000000000000000e+00
 </DataArray>
 <DataArray Name="massf[0]-Ar" type="Float32" NumberOfComponents="1" format="ascii">
 0.000000000000000000e+00
 0.000000000000000000e+00
 0.000000000000000000e+00
 0.000000000000000000e+00
 0.000000000000000000e+00
 0.000000000000000000e+00
 0.000000000000000000e+00
 0.000000000000000000e+00
 0.000000000000000000e+00
 0.000000000000000000e+00
 0.000000000000000000e+00
 0.000000000000000000e+00
 0.000000000000000000e+00
 0.000000000000000000e+00
 0.000000000000000000e+00
 0.000000000000000000e+00
 0.000000000000000000e+00
 0.000000000000000000e+00
 0.000000000000000000e+00
 0.000000000000000000e+00
 0.000000000000000000e+00
 0.000000000000000000e+00
 0.000000000000000000e+00
 0.000000000000000000e+00
 0.000000000000000000e+00
 0.000000000000000000e+00
 0.000000000000000000e+00
 0.000000000000000000e+00
 0.000000000000000000e+00
 </DataArray>
 <DataArray Name="massf[1]-He" type="Float32" NumberOfComponents="1" format="ascii">
 5.850615676642142472e-04
 5.757441564781559488e-04
 5.660729961723140555e-04
 5.558664181480598180e-04
 5.448891088467146347e-04
 5.328651070527616086e-04
 5.195188204026122275e-04
 5.046437899333606255e-04
 4.881741528864596419e-04
 4.702161103338449509e-04
 4.510144144767285076e-04
 4.308735465082273643e-04
 4.100795974592213533e-04
 3.888555200998919902e-04
 3.673536356679295398e-04
 3.456726340137273625e-04
 3.238849600219801295e-04
 3.020612891983481102e-04
 2.802831316172153765e-04
 2.586485735779886475e-04
 2.372737981198119153e-04
 2.162914072919877541e-04
 1.958462939614987873e-04
 1.760896674333534725e-04
 1.571718207162890138e-04
 1.392342946649595761e-04
 1.224021770472223669e-04
 1.067773007788768190e-04
 9.243303159675238278e-05
 </DataArray>
 <DataArray Name="massf[2]-N" type="Float32" NumberOfComponents="1" format="ascii">
 0.000000000000000000e+00
 0.000000000000000000e+00
 0.000000000000000000e+00
 0.000000000000000000e+00
 0.000000000000000000e+00
 0.000000000000000000e+00
 0.000000000000000000e+00
 0.000000000000000000e+00
 0.000000000000000000e+00
 0.000000000000000000e+00
 0.000000000000000000e+00
 0.000000000000000000e+00
 0.000000000000000000e+00
 0.000000000000000000e+00
 0.000000000000000000e+00
 0.000000000000000000e+00
 0.000000000000000000e+00
 0.000000000000000000e+00
 0.000000000000000000e+00
 0.000000000000000000e+00
 0.000000000000000000e+00
 0.000000000000000000e+00
 0.000000000000000000e+00
 0.000000000000000000e+00
 0.000000000000000000e+00
 0.000000000000000000e+00
 0.000000000000000000e+00
 0.000000000000000000e+00
 0.000000000000000000e+00
 </DataArray>
 <DataArray Name="massf[3]-N2" type="Float32" NumberOfComponents="1" format="ascii">
 7.558852901995145590e-01
 7.558923372165119448e-01
 7.558996517837984763e-01
 7.559073713023838348e-01
 7.559156737464518550e-01
 7.559247678331376674e-01
 7.559348620006047792e-01
 7.559461123995039333e-01
 7.559585688436694095e-01
 7.559721510102793696e-01
 7.559866737864431308e-01
 7.560019068845725831e-01
 7.560176339260717970e-01
 7.560336862855644435e-01
 7.560499487582659217e-01
 7.560663467023001072e-01
 7.560828253255874598e-01
 7.560993311742788547e-01
 7.561158026000406318e-01
 7.561321654174781859e-01
 7.561483317541308757e-01
 7.561642013193836664e-01
 7.561796645267351291e-01
 7.561946070123859442e-01
 7.562089151055574332e-01
 7.562224817549675349e-01
 7.562352123532618542e-01
 7.562470298813760428e-01
 7.562578788507646754e-01
 </DataArray>
 <DataArray Name="massf[4]-NO" type="Float32" NumberOfComponents="1" format="ascii">
 0.000000000000000000e+00
 0.000000000000000000e+00
 0.000000000000000000e+00
 0.000000000000000000e+00
 0.000000000000000000e+00
 0.000000000000000000e+00
 0.000000000000000000e+00
 0.000000000000000000e+00
 0.000000000000000000e+00
 0.000000000000000000e+00
 0.000000000000000000e+00
 0.000000000000000000e+00
 0.000000000000000000e+00
 0.000000000000000000e+00
 0.000000000000000000e+00
 0.000000000000000000e+00
 0.000000000000000000e+00
 0.000000000000000000e+00
 0.000000000000000000e+00
 0.000000000000000000e+00
 0.000000000000000000e+00
 0.000000000000000000e+00
 0.000000000000000000e+00
 0.000000000000000000e+00
 0.000000000000000000e+00
 0.000000000000000000e+00
 0.000000000000000000e+00
 0.000000000000000000e+00
 0.000000000000000000e+00
 </DataArray>
 <DataArray Name="massf[5]-O" type="Float32" NumberOfComponents="1" format="ascii">
 0.000000000000000000e+00
 0.000000000000000000e+00
 0.000000000000000000e+00
 0.000000000000000000e+00
 0.000000000000000000e+00
 0.000000000000000000e+00
 0.000000000000000000e+00
 0.000000000000000000e+00
 0.000000000000000000e+00
 0.000000000000000000e+00
 0.000000000000000000e+00
 0.000000000000000000e+00
 0.000000000000000000e+00
 0.000000000000000000e+00
 0.000000000000000000e+00
 0.000000000000000000e+00
 0.000000000000000000e+00
 0.000000000000000000e+00
 0.000000000000000000e+00
 0.000000000000000000e+00
 0.000000000000000000e+00
 0.000000000000000000e+00
 0.000000000000000000e+00
 0.000000000000000000e+00
 0.000000000000000000e+00
 0.000000000000000000e+00
 0.000000000000000000e+00
 0.000000000000000000e+00
 0.000000000000000000e+00
 </DataArray>
 <DataArray Name="massf[6]-O2" type="Float32" NumberOfComponents="1" format="ascii">
 2.435296482328209444e-01
 2.435319186270099856e-01
 2.435342752200292393e-01
 2.435367622794679943e-01
 2.435394371447015816e-01
 2.435423670598095003e-01
 2.435456191789924507e-01
 2.435492438105626989e-01
 2.435532570034440458e-01
 2.435576328793866430e-01
 2.435623117990801667e-01
 2.435672195689190522e-01
 2.435722864764691131e-01
 2.435774581943357386e-01
 2.435826976060661286e-01
 2.435879806636860878e-01
 2.435932897143905929e-01
 2.435986075365225711e-01
 2.436039142683422143e-01
 2.436091860089438232e-01
 2.436143944477493772e-01
 2.436195072733243483e-01
 2.436244891793032663e-01
 2.436293033201805402e-01
 2.436339130737262826e-01
 2.436382839503674069e-01
 2.436423854696909697e-01
 2.436461928178451364e-01
 2.436496881176385132e-01
 </DataArray>
 <DataArray Name="dt_chem" type="Float32" NumberOfComponents="1" format="ascii">
 -1.000000000000000000e+00
 -1.000000000000000000e+00
 -1.000000000000000000e+00
 -1.000000000000000000e+00
 -1.000000000000000000e+00
 -1.000000000000000000e+00
 -1.000000000000000000e+00
 -1.000000000000000000e+00
 -1.000000000000000000e+00
 -1.000000000000000000e+00
 -1.000000000000000000e+00
 -1.000000000000000000e+00
 -1.000000000000000000e+00
 -1.000000000000000000e+00
 -1.000000000000000000e+00
 -1.000000000000000000e+00
 -1.000000000000000000e+00
 -1.000000000000000000e+00
 -1.000000000000000000e+00
 -1.000000000000000000e+00
 -1.000000000000000000e+00
 -1.000000000000000000e+00
 -1.000000000000000000e+00
 -1.000000000000000000e+00
 -1.000000000000000000e+00
 -1.000000000000000000e+00
 -1.000000000000000000e+00
 -1.000000000000000000e+00
 -1.000000000000000000e+00
 </DataArray>
 <DataArray Name="u" type="Float32" NumberOfComponents="1" format="ascii">
 1.080293786879989319e+07
 1.107650525734939054e+07
 1.139918011922975257e+07
 1.179436153987218067e+07
 1.229410513456789404e+07
 1.293728919211175665e+07
 1.376230769891454652e+07
 1.479416278999062069e+07
 1.603145830325264297e+07
 1.744255118412769586e+07
 1.897518255489060283e+07
 2.057350760197634250e+07
 2.219212956512779370e+07
 2.380178145349241793e+07
 2.538802222471802682e+07
 2.694681510412166268e+07
 2.847962747196273133e+07
 2.998811247770574316e+07
 3.147051434753619879e+07
 3.292071784680457786e+07
 3.432828281064008176e+07
 3.567904588093078882e+07
 3.695611423910009861e+07
 3.814111882903865725e+07
 3.921560731931933761e+07
 4.016245553793227673e+07
 4.096717297661621124e+07
 4.161898375674674660e+07
 4.211158524538827688e+07
 </DataArray>
 <DataArray Name="T" type="Float32" NumberOfComponents="1" format="ascii">
 1.045674114894901504e+04
 1.065990992408390957e+04
 1.089553401282727646e+04
 1.117838904461819766e+04
 1.152753469188460440e+04
 1.196388763661636222e+04
 1.250448470182082929e+04
 1.315501180451123219e+04
 1.390551041271645045e+04
 1.473355864829895290e+04
 1.561331396697855962e+04
 1.652430706427105906e+04
 1.745565286284991089e+04
 1.840551811259405804e+04
 1.937734411888089380e+04
 2.037063734839233439e+04
 2.135538021500534160e+04
 2.232454631150779460e+04
 2.327700515500822075e+04
 2.420882591684902218e+04
 2.511329918797474966e+04
 2.598132310869804496e+04
 2.680204140866302987e+04
 2.756364830162110957e+04
 2.825428334195356729e+04
 2.886293834357583546e+04
 2.938029641462707150e+04
 2.979942685615054870e+04
 3.011627301549705953e+04
 </DataArray>
 <DataArray Name="vel.vector" type="Float32" NumberOfComponents="3" format="ascii">
 1.150152050781250000e+04 4.787057800292968750e+02 0.000000000000000000e+00
 1.148857421875000000e+04 4.713137207031250000e+02 0.000000000000000000e+00
 1.146211621093750000e+04 4.637067565917968750e+02 0.000000000000000000e+00
 1.141598632812500000e+04 4.557183227539062500e+02 0.000000000000000000e+00
 1.134250683593750000e+04 4.471324462890625000e+02 0.000000000000000000e+00
 1.123347265625000000e+04 4.376983337402343750e+02 0.000000000000000000e+00
 1.108237402343750000e+04 4.271732482910156250e+02 0.000000000000000000e+00
 1.088751171875000000e+04 4.153934631347656250e+02 0.000000000000000000e+00
 1.065449316406250000e+04 4.023462219238281250e+02 0.000000000000000000e+00
 1.039620117187500000e+04 3.882000122070312500e+02 0.000000000000000000e+00
 1.012965332031250000e+04 3.732680664062500000e+02 0.000000000000000000e+00
 9.871450195312500000e+03 3.579263610839843750e+02 0.000000000000000000e+00
 9.634207031250000000e+03 3.425376892089843750e+02 0.000000000000000000e+00
 9.425230468750000000e+03 3.274035339355468750e+02 0.000000000000000000e+00
 9.247119140625000000e+03 3.127533264160156250e+02 0.000000000000000000e+00
 9.099236328125000000e+03 2.987535400390625000e+02 0.000000000000000000e+00
 8.978504882812500000e+03 2.854961853027343750e+02 0.000000000000000000e+00
 8.879863281250000000e+03 2.730205078125000000e+02 0.000000000000000000e+00
 8.798445312500000000e+03 2.613410949707031250e+02 0.000000000000000000e+00
 8.730224609375000000e+03 2.504565582275390625e+02 0.000000000000000000e+00
 8.672062500000000000e+03 2.403545379638671875e+02 0.000000000000000000e+00
 8.621618164062500000e+03 2.310146026611328125e+02 0.000000000000000000e+00
 8.577199218750000000e+03 2.224096679687500000e+02 0.000000000000000000e+00
 8.537598632812500000e+03 2.145066223144531250e+02 0.000000000000000000e+00
 8.501957031250000000e+03 2.072665252685546875e+02 0.000000000000000000e+00
 8.469639648437500000e+03 2.006447906494140625e+02 0.000000000000000000e+00
 8.440158203125000000e+03 1.945911865234375000e+02 0.000000000000000000e+00
 8.413110351562500000e+03 1.890501556396484375e+02 0.000000000000000000e+00
 8.388145507812500000e+03 1.839612274169921875e+02 0.000000000000000000e+00
 </DataArray>
</CellData>
</Piece>
</UnstructuredGrid>
</VTKFile>
