<VTKFile type="UnstructuredGrid" byte_order="BigEndian">
<UnstructuredGrid><Piece NumberOfPoints="30" NumberOfCells="14">
<Points>
 <DataArray type="Float32" NumberOfComponents="3" format="ascii">
 -1.053333356976509094e-01 0.000000000000000000e+00 0.000000000000000000e+00
 -9.914285689592361450e-02 0.000000000000000000e+00 0.000000000000000000e+00
 -9.295237809419631958e-02 0.000000000000000000e+00 0.000000000000000000e+00
 -8.676190674304962158e-02 0.000000000000000000e+00 0.000000000000000000e+00
 -8.057142794132232666e-02 0.000000000000000000e+00 0.000000000000000000e+00
 -7.438094913959503174e-02 0.000000000000000000e+00 0.000000000000000000e+00
 -6.819047778844833374e-02 0.000000000000000000e+00 0.000000000000000000e+00
 -6.199999898672103882e-02 0.000000000000000000e+00 0.000000000000000000e+00
 -5.580952391028404236e-02 0.000000000000000000e+00 0.000000000000000000e+00
 -4.961904883384704590e-02 0.000000000000000000e+00 0.000000000000000000e+00
 -4.342857003211975098e-02 0.000000000000000000e+00 0.000000000000000000e+00
 -3.723809495568275452e-02 0.000000000000000000e+00 0.000000000000000000e+00
 -3.104761987924575806e-02 0.000000000000000000e+00 0.000000000000000000e+00
 -2.485714294016361237e-02 0.000000000000000000e+00 0.000000000000000000e+00
 -1.866666600108146667e-02 0.000000000000000000e+00 0.000000000000000000e+00
 -1.053333356976509094e-01 4.250000044703483582e-02 0.000000000000000000e+00
 -9.914285689592361450e-02 4.250000044703483582e-02 0.000000000000000000e+00
 -9.295237809419631958e-02 4.250000044703483582e-02 0.000000000000000000e+00
 -8.676190674304962158e-02 4.250000044703483582e-02 0.000000000000000000e+00
 -8.057142794132232666e-02 4.250000044703483582e-02 0.000000000000000000e+00
 -7.438094913959503174e-02 4.250000044703483582e-02 0.000000000000000000e+00
 -6.819047778844833374e-02 4.250000044703483582e-02 0.000000000000000000e+00
 -6.199999898672103882e-02 4.250000044703483582e-02 0.000000000000000000e+00
 -5.580952391028404236e-02 4.250000044703483582e-02 0.000000000000000000e+00
 -4.961904883384704590e-02 4.250000044703483582e-02 0.000000000000000000e+00
 -4.342857003211975098e-02 4.250000044703483582e-02 0.000000000000000000e+00
 -3.723809495568275452e-02 4.250000044703483582e-02 0.000000000000000000e+00
 -3.104761987924575806e-02 4.250000044703483582e-02 0.000000000000000000e+00
 -2.485714294016361237e-02 4.250000044703483582e-02 0.000000000000000000e+00
 -1.866666600108146667e-02 4.250000044703483582e-02 0.000000000000000000e+00
 </DataArray>
</Points>
<Cells>
 <DataArray type="Int32" Name="connectivity" format="ascii">
 0 1 16 15
 1 2 17 16
 2 3 18 17
 3 4 19 18
 4 5 20 19
 5 6 21 20
 6 7 22 21
 7 8 23 22
 8 9 24 23
 9 10 25 24
 10 11 26 25
 11 12 27 26
 12 13 28 27
 13 14 29 28
 </DataArray>
 <DataArray type="Int32" Name="offsets" format="ascii">
 4
 8
 12
 16
 20
 24
 28
 32
 36
 40
 44
 48
 52
 56
 </DataArray>
 <DataArray type="UInt8" Name="types" format="ascii">
 9
 9
 9
 9
 9
 9
 9
 9
 9
 9
 9
 9
 9
 9
 </DataArray>
</Cells>
<CellData>
 <DataArray Name="pos.x" type="Float32" NumberOfComponents="1" format="ascii">
 -1.022380952380955166e-01
 -9.604761904761913160e-02
 -8.985714285714277438e-02
 -8.366666666666656982e-02
 -7.747619047619040689e-02
 -7.128571428571425783e-02
 -6.509523809523817817e-02
 -5.890476190476190421e-02
 -5.271428571428565801e-02
 -4.652380952380957835e-02
 -4.033333333333332521e-02
 -3.414285714285714146e-02
 -2.795238095238094730e-02
 -2.176190476190477396e-02
 </DataArray>
 <DataArray Name="pos.y" type="Float32" NumberOfComponents="1" format="ascii">
 2.125000000000005704e-02
 2.124999999999999459e-02
 2.124999999999999806e-02
 2.124999999999998071e-02
 2.124999999999999112e-02
 2.124999999999999459e-02
 2.125000000000000500e-02
 2.125000000000000500e-02
 2.124999999999998418e-02
 2.125000000000000847e-02
 2.125000000000001193e-02
 2.124999999999999112e-02
 2.125000000000000153e-02
 2.125000000000000500e-02
 </DataArray>
 <DataArray Name="pos.z" type="Float32" NumberOfComponents="1" format="ascii">
 0.000000000000000000e+00
 0.000000000000000000e+00
 0.000000000000000000e+00
 0.000000000000000000e+00
 0.000000000000000000e+00
 0.000000000000000000e+00
 0.000000000000000000e+00
 0.000000000000000000e+00
 0.000000000000000000e+00
 0.000000000000000000e+00
 0.000000000000000000e+00
 0.000000000000000000e+00
 0.000000000000000000e+00
 0.000000000000000000e+00
 </DataArray>
 <DataArray Name="volume" type="Float32" NumberOfComponents="1" format="ascii">
 5.590773809523795937e-06
 5.590773809523797631e-06
 5.590773809523835748e-06
 5.590773809523812878e-06
 5.590773809523824736e-06
 5.590773809523797631e-06
 5.590773809523810337e-06
 5.590773809523810337e-06
 5.590773809523804408e-06
 5.590773809523796784e-06
 5.590773809523829819e-06
 5.590773809523801867e-06
 5.590773809523813725e-06
 5.590773809523817113e-06
 </DataArray>
 <DataArray Name="rho" type="Float32" NumberOfComponents="1" format="ascii">
 2.173331198642457274e+00
 2.118353383634906439e+00
 2.115369371333998494e+00
 2.114849281577669160e+00
 2.114464427553947257e+00
 2.114095052400543295e+00
 2.113727001796947835e+00
 2.113357721047602666e+00
 2.112986704701020457e+00
 2.112613849482245509e+00
 2.112239132993464885e+00
 2.111862550766613555e+00
 2.111483766870528633e+00
 2.111186426756168188e+00
 </DataArray>
 <DataArray Name="vel.x" type="Float32" NumberOfComponents="1" format="ascii">
 5.663979494149693892e+02
 6.094768027494421858e+02
 6.142363333789863873e+02
 6.171785797564338054e+02
 6.200330688309297784e+02
 6.228786291198372282e+02
 6.257234743004813708e+02
 6.285690414815567237e+02
 6.314156172482084912e+02
 6.342632635222375939e+02
 6.371119970955310237e+02
 6.399618261405181556e+02
 6.428126054329284216e+02
 6.457021202992073086e+02
 </DataArray>
 <DataArray Name="vel.y" type="Float32" NumberOfComponents="1" format="ascii">
 -1.152747425900405744e+02
 -5.137403967369029800e+01
 -2.287970643492379352e+01
 -1.019830886501502221e+01
 -4.553923434826467442e+00
 -2.038007227579348601e+00
 -9.142520807718180764e-01
 -4.111472730698595424e-01
 -1.853575304384500466e-01
 -8.377324035546393488e-02
 -3.795591411337063958e-02
 -1.723961897778395619e-02
 -7.849540032903876141e-03
 -3.582729114782061235e-03
 </DataArray>
 <DataArray Name="vel.z" type="Float32" NumberOfComponents="1" format="ascii">
 0.000000000000000000e+00
 0.000000000000000000e+00
 0.000000000000000000e+00
 0.000000000000000000e+00
 0.000000000000000000e+00
 0.000000000000000000e+00
 0.000000000000000000e+00
 0.000000000000000000e+00
 0.000000000000000000e+00
 0.000000000000000000e+00
 0.000000000000000000e+00
 0.000000000000000000e+00
 0.000000000000000000e+00
 0.000000000000000000e+00
 </DataArray>
 <DataArray Name="p" type="Float32" NumberOfComponents="1" format="ascii">
 9.092199200992202386e+06
 8.845722661923171952e+06
 8.832168809007989243e+06
 8.829119533242383972e+06
 8.826533824112970382e+06
 8.823984849657464772e+06
 8.821431849387193099e+06
 8.818867904865423217e+06
 8.816291657907910645e+06
 8.813702828984336928e+06
 8.811101354448327795e+06
 8.808487219527060166e+06
 8.805859103382783011e+06
 8.803545280834183097e+06
 </DataArray>
 <DataArray Name="a" type="Float32" NumberOfComponents="1" format="ascii">
 2.640559078701377985e+03
 2.638103492438847297e+03
 2.637940219587657793e+03
 2.637809099354346472e+03
 2.637662822677697932e+03
 2.637512319045222284e+03
 2.637360326074903696e+03
 2.637207402541976080e+03
 2.637053659817120661e+03
 2.636899119588259964e+03
 2.636743785350524831e+03
 2.636587656713163142e+03
 2.636430744699189745e+03
 2.636269975328579676e+03
 </DataArray>
 <DataArray Name="mu" type="Float32" NumberOfComponents="1" format="ascii">
 1.064223939492820554e-04
 1.064223939492820554e-04
 1.064223939492820554e-04
 1.064223939492820554e-04
 1.064223939492820554e-04
 1.064223939492820554e-04
 1.064223939492820554e-04
 1.064223939492820554e-04
 1.064223939492820554e-04
 1.064223939492820554e-04
 1.064223939492820554e-04
 1.064223939492820554e-04
 1.064223939492820554e-04
 1.064223939492820554e-04
 </DataArray>
 <DataArray Name="k" type="Float32" NumberOfComponents="1" format="ascii">
 8.304462020313038151e-01
 8.304462020313038151e-01
 8.304462020313038151e-01
 8.304462020313038151e-01
 8.304462020313038151e-01
 8.304462020313038151e-01
 8.304462020313038151e-01
 8.304462020313038151e-01
 8.304462020313038151e-01
 8.304462020313038151e-01
 8.304462020313038151e-01
 8.304462020313038151e-01
 8.304462020313038151e-01
 8.304462020313038151e-01
 </DataArray>
 <DataArray Name="mu_t" type="Float32" NumberOfComponents="1" format="ascii">
 0.000000000000000000e+00
 0.000000000000000000e+00
 0.000000000000000000e+00
 0.000000000000000000e+00
 0.000000000000000000e+00
 0.000000000000000000e+00
 0.000000000000000000e+00
 0.000000000000000000e+00
 0.000000000000000000e+00
 0.000000000000000000e+00
 0.000000000000000000e+00
 0.000000000000000000e+00
 0.000000000000000000e+00
 0.000000000000000000e+00
 </DataArray>
 <DataArray Name="k_t" type="Float32" NumberOfComponents="1" format="ascii">
 0.000000000000000000e+00
 0.000000000000000000e+00
 0.000000000000000000e+00
 0.000000000000000000e+00
 0.000000000000000000e+00
 0.000000000000000000e+00
 0.000000000000000000e+00
 0.000000000000000000e+00
 0.000000000000000000e+00
 0.000000000000000000e+00
 0.000000000000000000e+00
 0.000000000000000000e+00
 0.000000000000000000e+00
 0.000000000000000000e+00
 </DataArray>
 <DataArray Name="S" type="Float32" NumberOfComponents="1" format="ascii">
 0.000000000000000000e+00
 0.000000000000000000e+00
 0.000000000000000000e+00
 0.000000000000000000e+00
 0.000000000000000000e+00
 0.000000000000000000e+00
 0.000000000000000000e+00
 0.000000000000000000e+00
 0.000000000000000000e+00
 0.000000000000000000e+00
 0.000000000000000000e+00
 0.000000000000000000e+00
 0.000000000000000000e+00
 0.000000000000000000e+00
 </DataArray>
 <DataArray Name="massf[0]-Ar" type="Float32" NumberOfComponents="1" format="ascii">
 0.000000000000000000e+00
 0.000000000000000000e+00
 0.000000000000000000e+00
 0.000000000000000000e+00
 0.000000000000000000e+00
 0.000000000000000000e+00
 0.000000000000000000e+00
 0.000000000000000000e+00
 0.000000000000000000e+00
 0.000000000000000000e+00
 0.000000000000000000e+00
 0.000000000000000000e+00
 0.000000000000000000e+00
 0.000000000000000000e+00
 </DataArray>
 <DataArray Name="massf[1]-He" type="Float32" NumberOfComponents="1" format="ascii">
 1.000000000000000000e+00
 1.000000000000000000e+00
 1.000000000000000000e+00
 1.000000000000000000e+00
 1.000000000000000000e+00
 1.000000000000000000e+00
 1.000000000000000000e+00
 1.000000000000000000e+00
 1.000000000000000000e+00
 1.000000000000000000e+00
 1.000000000000000000e+00
 1.000000000000000000e+00
 1.000000000000000000e+00
 1.000000000000000000e+00
 </DataArray>
 <DataArray Name="massf[2]-N" type="Float32" NumberOfComponents="1" format="ascii">
 0.000000000000000000e+00
 0.000000000000000000e+00
 0.000000000000000000e+00
 0.000000000000000000e+00
 0.000000000000000000e+00
 0.000000000000000000e+00
 0.000000000000000000e+00
 0.000000000000000000e+00
 0.000000000000000000e+00
 0.000000000000000000e+00
 0.000000000000000000e+00
 0.000000000000000000e+00
 0.000000000000000000e+00
 0.000000000000000000e+00
 </DataArray>
 <DataArray Name="massf[3]-N2" type="Float32" NumberOfComponents="1" format="ascii">
 0.000000000000000000e+00
 0.000000000000000000e+00
 0.000000000000000000e+00
 0.000000000000000000e+00
 0.000000000000000000e+00
 0.000000000000000000e+00
 0.000000000000000000e+00
 0.000000000000000000e+00
 0.000000000000000000e+00
 0.000000000000000000e+00
 0.000000000000000000e+00
 0.000000000000000000e+00
 0.000000000000000000e+00
 0.000000000000000000e+00
 </DataArray>
 <DataArray Name="massf[4]-NO" type="Float32" NumberOfComponents="1" format="ascii">
 0.000000000000000000e+00
 0.000000000000000000e+00
 0.000000000000000000e+00
 0.000000000000000000e+00
 0.000000000000000000e+00
 0.000000000000000000e+00
 0.000000000000000000e+00
 0.000000000000000000e+00
 0.000000000000000000e+00
 0.000000000000000000e+00
 0.000000000000000000e+00
 0.000000000000000000e+00
 0.000000000000000000e+00
 0.000000000000000000e+00
 </DataArray>
 <DataArray Name="massf[5]-O" type="Float32" NumberOfComponents="1" format="ascii">
 0.000000000000000000e+00
 0.000000000000000000e+00
 0.000000000000000000e+00
 0.000000000000000000e+00
 0.000000000000000000e+00
 0.000000000000000000e+00
 0.000000000000000000e+00
 0.000000000000000000e+00
 0.000000000000000000e+00
 0.000000000000000000e+00
 0.000000000000000000e+00
 0.000000000000000000e+00
 0.000000000000000000e+00
 0.000000000000000000e+00
 </DataArray>
 <DataArray Name="massf[6]-O2" type="Float32" NumberOfComponents="1" format="ascii">
 0.000000000000000000e+00
 0.000000000000000000e+00
 0.000000000000000000e+00
 0.000000000000000000e+00
 0.000000000000000000e+00
 0.000000000000000000e+00
 0.000000000000000000e+00
 0.000000000000000000e+00
 0.000000000000000000e+00
 0.000000000000000000e+00
 0.000000000000000000e+00
 0.000000000000000000e+00
 0.000000000000000000e+00
 0.000000000000000000e+00
 </DataArray>
 <DataArray Name="dt_chem" type="Float32" NumberOfComponents="1" format="ascii">
 -1.000000000000000000e+00
 -1.000000000000000000e+00
 -1.000000000000000000e+00
 -1.000000000000000000e+00
 -1.000000000000000000e+00
 -1.000000000000000000e+00
 -1.000000000000000000e+00
 -1.000000000000000000e+00
 -1.000000000000000000e+00
 -1.000000000000000000e+00
 -1.000000000000000000e+00
 -1.000000000000000000e+00
 -1.000000000000000000e+00
 -1.000000000000000000e+00
 </DataArray>
 <DataArray Name="u" type="Float32" NumberOfComponents="1" format="ascii">
 4.726947252014765516e+06
 4.715281261849961244e+06
 4.714505970620083623e+06
 4.713883388886651024e+06
 4.713188878236198798e+06
 4.712474338517498225e+06
 4.711752769312252291e+06
 4.711026824333701283e+06
 4.710297032993104309e+06
 4.709563498910529539e+06
 4.708826239339874126e+06
 4.708085253092709929e+06
 4.707340593149328604e+06
 4.706577673250777647e+06
 </DataArray>
 <DataArray Name="T" type="Float32" NumberOfComponents="1" format="ascii">
 2.013950424503573004e+03
 2.010206422306159766e+03
 2.009957605701028569e+03
 2.009757798625494161e+03
 2.009534907180816390e+03
 2.009305587745504681e+03
 2.009074012315398932e+03
 2.008841032554871845e+03
 2.008606818369514485e+03
 2.008371403014431735e+03
 2.008134792026971354e+03
 2.007896985025727190e+03
 2.007657999013828885e+03
 2.007413152778207859e+03
 </DataArray>
 <DataArray Name="vel.vector" type="Float32" NumberOfComponents="3" format="ascii">
 5.663979492187500000e+02 -1.152747421264648438e+02 0.000000000000000000e+00
 6.094768066406250000e+02 -5.137403869628906250e+01 0.000000000000000000e+00
 6.142363281250000000e+02 -2.287970733642578125e+01 0.000000000000000000e+00
 6.171785888671875000e+02 -1.019830894470214844e+01 0.000000000000000000e+00
 6.200330810546875000e+02 -4.553923606872558594e+00 0.000000000000000000e+00
 6.228786010742187500e+02 -2.038007259368896484e+00 0.000000000000000000e+00
 6.257234497070312500e+02 -9.142521023750305176e-01 0.000000000000000000e+00
 6.285690307617187500e+02 -4.111472666263580322e-01 0.000000000000000000e+00
 6.314155883789062500e+02 -1.853575259447097778e-01 0.000000000000000000e+00
 6.342632446289062500e+02 -8.377324044704437256e-02 0.000000000000000000e+00
 6.371119995117187500e+02 -3.795591369271278381e-02 0.000000000000000000e+00
 6.399618530273437500e+02 -1.723961904644966125e-02 0.000000000000000000e+00
 6.428126220703125000e+02 -7.849539630115032196e-03 0.000000000000000000e+00
 6.457021484375000000e+02 -3.582729026675224304e-03 0.000000000000000000e+00
 </DataArray>
</CellData>
</Piece>
</UnstructuredGrid>
</VTKFile>
