<VTKFile type="UnstructuredGrid" byte_order="BigEndian">
<UnstructuredGrid><Piece NumberOfPoints="42" NumberOfCells="20">
<Points>
 <DataArray type="Float32" NumberOfComponents="3" format="ascii">
 9.210471153259277344e+00 0.000000000000000000e+00 0.000000000000000000e+00
 9.216885566711425781e+00 0.000000000000000000e+00 0.000000000000000000e+00
 9.223299980163574219e+00 0.000000000000000000e+00 0.000000000000000000e+00
 9.229714393615722656e+00 0.000000000000000000e+00 0.000000000000000000e+00
 9.236129760742187500e+00 0.000000000000000000e+00 0.000000000000000000e+00
 9.242544174194335938e+00 0.000000000000000000e+00 0.000000000000000000e+00
 9.248958587646484375e+00 0.000000000000000000e+00 0.000000000000000000e+00
 9.255373001098632812e+00 0.000000000000000000e+00 0.000000000000000000e+00
 9.261787414550781250e+00 0.000000000000000000e+00 0.000000000000000000e+00
 9.268202781677246094e+00 0.000000000000000000e+00 0.000000000000000000e+00
 9.274617195129394531e+00 0.000000000000000000e+00 0.000000000000000000e+00
 9.281031608581542969e+00 0.000000000000000000e+00 0.000000000000000000e+00
 9.287446022033691406e+00 0.000000000000000000e+00 0.000000000000000000e+00
 9.293860435485839844e+00 0.000000000000000000e+00 0.000000000000000000e+00
 9.300275802612304688e+00 0.000000000000000000e+00 0.000000000000000000e+00
 9.306690216064453125e+00 0.000000000000000000e+00 0.000000000000000000e+00
 9.313104629516601562e+00 0.000000000000000000e+00 0.000000000000000000e+00
 9.319519042968750000e+00 0.000000000000000000e+00 0.000000000000000000e+00
 9.325933456420898438e+00 0.000000000000000000e+00 0.000000000000000000e+00
 9.332348823547363281e+00 0.000000000000000000e+00 0.000000000000000000e+00
 9.338763236999511719e+00 0.000000000000000000e+00 0.000000000000000000e+00
 9.210471153259277344e+00 7.897099852561950684e-02 0.000000000000000000e+00
 9.216885566711425781e+00 7.930769771337509155e-02 0.000000000000000000e+00
 9.223299980163574219e+00 7.964439690113067627e-02 0.000000000000000000e+00
 9.229714393615722656e+00 7.998110353946685791e-02 0.000000000000000000e+00
 9.236129760742187500e+00 8.031780272722244263e-02 0.000000000000000000e+00
 9.242544174194335938e+00 8.065450191497802734e-02 0.000000000000000000e+00
 9.248958587646484375e+00 8.099120110273361206e-02 0.000000000000000000e+00
 9.255373001098632812e+00 8.132790029048919678e-02 0.000000000000000000e+00
 9.261787414550781250e+00 8.166459947824478149e-02 0.000000000000000000e+00
 9.268202781677246094e+00 8.200129866600036621e-02 0.000000000000000000e+00
 9.274617195129394531e+00 8.233799785375595093e-02 0.000000000000000000e+00
 9.281031608581542969e+00 8.267469704151153564e-02 0.000000000000000000e+00
 9.287446022033691406e+00 8.301140367984771729e-02 0.000000000000000000e+00
 9.293860435485839844e+00 8.334810286760330200e-02 0.000000000000000000e+00
 9.300275802612304688e+00 8.368480205535888672e-02 0.000000000000000000e+00
 9.306690216064453125e+00 8.402150124311447144e-02 0.000000000000000000e+00
 9.313104629516601562e+00 8.435820043087005615e-02 0.000000000000000000e+00
 9.319519042968750000e+00 8.469489961862564087e-02 0.000000000000000000e+00
 9.325933456420898438e+00 8.503159880638122559e-02 0.000000000000000000e+00
 9.332348823547363281e+00 8.536829799413681030e-02 0.000000000000000000e+00
 9.338763236999511719e+00 8.570499718189239502e-02 0.000000000000000000e+00
 </DataArray>
</Points>
<Cells>
 <DataArray type="Int32" Name="connectivity" format="ascii">
 0 1 22 21
 1 2 23 22
 2 3 24 23
 3 4 25 24
 4 5 26 25
 5 6 27 26
 6 7 28 27
 7 8 29 28
 8 9 30 29
 9 10 31 30
 10 11 32 31
 11 12 33 32
 12 13 34 33
 13 14 35 34
 14 15 36 35
 15 16 37 36
 16 17 38 37
 17 18 39 38
 18 19 40 39
 19 20 41 40
 </DataArray>
 <DataArray type="Int32" Name="offsets" format="ascii">
 4
 8
 12
 16
 20
 24
 28
 32
 36
 40
 44
 48
 52
 56
 60
 64
 68
 72
 76
 80
 </DataArray>
 <DataArray type="UInt8" Name="types" format="ascii">
 9
 9
 9
 9
 9
 9
 9
 9
 9
 9
 9
 9
 9
 9
 9
 9
 9
 9
 9
 9
 </DataArray>
</Cells>
<CellData>
 <DataArray Name="pos.x" type="Float32" NumberOfComponents="1" format="ascii">
 9.213680574255157296e+00
 9.220095164618202332e+00
 9.226509755068965646e+00
 9.232924345590305393e+00
 9.239338936199290586e+00
 9.245753526882877438e+00
 9.252168117643849499e+00
 9.258582708480647128e+00
 9.264997299396849684e+00
 9.271411890381134668e+00
 9.277826481444675366e+00
 9.284241072579485277e+00
 9.290655663783676133e+00
 9.297070255059932009e+00
 9.303484846407704012e+00
 9.309899437821183454e+00
 9.316314029307765310e+00
 9.322728620860885940e+00
 9.329143212479753089e+00
 9.335557804160885098e+00
 </DataArray>
 <DataArray Name="pos.y" type="Float32" NumberOfComponents="1" format="ascii">
 3.956973468738463062e-02
 3.973808443451085082e-02
 3.990643418379017510e-02
 4.007478393515015447e-02
 4.024313368861873186e-02
 4.041148344411918392e-02
 4.057983320166197450e-02
 4.074818296119439576e-02
 4.091653272272540581e-02
 4.108488248619353300e-02
 4.125323225159490542e-02
 4.142158201891499997e-02
 4.158993178810717339e-02
 4.175828155916327944e-02
 4.192663133205217635e-02
 4.209498110676925670e-02
 4.226333088327512144e-02
 4.243168066155746099e-02
 4.260003044159536151e-02
 4.276838022335004846e-02
 </DataArray>
 <DataArray Name="pos.z" type="Float32" NumberOfComponents="1" format="ascii">
 0.000000000000000000e+00
 0.000000000000000000e+00
 0.000000000000000000e+00
 0.000000000000000000e+00
 0.000000000000000000e+00
 0.000000000000000000e+00
 0.000000000000000000e+00
 0.000000000000000000e+00
 0.000000000000000000e+00
 0.000000000000000000e+00
 0.000000000000000000e+00
 0.000000000000000000e+00
 0.000000000000000000e+00
 0.000000000000000000e+00
 0.000000000000000000e+00
 0.000000000000000000e+00
 0.000000000000000000e+00
 0.000000000000000000e+00
 0.000000000000000000e+00
 0.000000000000000000e+00
 </DataArray>
 <DataArray Name="volume" type="Float32" NumberOfComponents="1" format="ascii">
 2.008746796713563613e-05
 2.025875640608386765e-05
 2.043077204829025738e-05
 2.060351489374925220e-05
 2.077698494246658481e-05
 2.095118219442500284e-05
 2.112610664964762692e-05
 2.130175830811113991e-05
 2.147813716983308218e-05
 2.165524323480762952e-05
 2.183307650304081620e-05
 2.201163697451451572e-05
 2.219092464925298709e-05
 2.237093952723176463e-05
 2.255168160846928653e-05
 2.273315089296569849e-05
 2.291534738070210152e-05
 2.309827107169740816e-05
 2.328192196595175054e-05
 2.346630006344579261e-05
 </DataArray>
 <DataArray Name="rho" type="Float32" NumberOfComponents="1" format="ascii">
 7.954849307848442215e-04
 8.167073104642335983e-04
 8.396319540370611283e-04
 8.630494876902560820e-04
 8.858447675156695070e-04
 9.071559618688738134e-04
 9.264676706265818733e-04
 9.436242521218233138e-04
 9.587777472962227994e-04
 9.723000311044323416e-04
 9.846887722718530769e-04
 9.964872279863926791e-04
 1.008226176797965027e-03
 1.020387038948240887e-03
 1.033379819306256154e-03
 1.047527315565220793e-03
 1.063046715042618214e-03
 1.080019825531337288e-03
 1.098342490214665500e-03
 1.117641318055048391e-03
 </DataArray>
 <DataArray Name="vel.x" type="Float32" NumberOfComponents="1" format="ascii">
 1.096681506631857155e+04
 1.080892897055673529e+04
 1.064439433810938499e+04
 1.047868244730456172e+04
 1.031671147524383923e+04
 1.016228792382172469e+04
 1.001787179352173007e+04
 9.884639285686109361e+03
 9.762738557195720205e+03
 9.651618954858704456e+03
 9.550341030840803796e+03
 9.457815171874366570e+03
 9.372952131914213169e+03
 9.294732130580190642e+03
 9.222210385961328939e+03
 9.154478213054140724e+03
 9.090592664228364811e+03
 9.029476646680404883e+03
 8.969777850744017996e+03
 8.909659995557703951e+03
 </DataArray>
 <DataArray Name="vel.y" type="Float32" NumberOfComponents="1" format="ascii">
 6.650211060364165405e+02
 6.565338915793745400e+02
 6.473007299627495286e+02
 6.374615194553441597e+02
 6.271873046021540858e+02
 6.166590347622241097e+02
 6.060481119276591926e+02
 5.955017152092741526e+02
 5.851336268246622012e+02
 5.750196683413352048e+02
 5.651961497333652460e+02
 5.556597139821531073e+02
 5.463672997348292029e+02
 5.372353964723216677e+02
 5.281381915495330759e+02
 5.189045434275210482e+02
 5.093139437644676377e+02
 4.990917658772246455e+02
 4.879041688145524063e+02
 4.753530660226807640e+02
 </DataArray>
 <DataArray Name="vel.z" type="Float32" NumberOfComponents="1" format="ascii">
 0.000000000000000000e+00
 0.000000000000000000e+00
 0.000000000000000000e+00
 0.000000000000000000e+00
 0.000000000000000000e+00
 0.000000000000000000e+00
 0.000000000000000000e+00
 0.000000000000000000e+00
 0.000000000000000000e+00
 0.000000000000000000e+00
 0.000000000000000000e+00
 0.000000000000000000e+00
 0.000000000000000000e+00
 0.000000000000000000e+00
 0.000000000000000000e+00
 0.000000000000000000e+00
 0.000000000000000000e+00
 0.000000000000000000e+00
 0.000000000000000000e+00
 0.000000000000000000e+00
 </DataArray>
 <DataArray Name="p" type="Float32" NumberOfComponents="1" format="ascii">
 5.691971133347649811e+03
 6.035163772409151534e+03
 6.408562874626707526e+03
 6.800421715186369511e+03
 7.198065374296547816e+03
 7.589689389694031888e+03
 7.965777372946871765e+03
 8.319820545149752434e+03
 8.648316211584091434e+03
 8.950247965497370387e+03
 9.226332072502676965e+03
 9.478272868735557495e+03
 9.708169491306205600e+03
 9.918113238183679641e+03
 1.010993852165151475e+04
 1.028504714540400710e+04
 1.044420896137646378e+04
 1.058723920463248760e+04
 1.071244971687995530e+04
 1.081575650568291167e+04
 </DataArray>
 <DataArray Name="a" type="Float32" NumberOfComponents="1" format="ascii">
 2.911934447173619446e+03
 2.959207829400256742e+03
 3.007446481273651443e+03
 3.055695172724978420e+03
 3.103036888233124046e+03
 3.148667563053954382e+03
 3.191925269984264560e+03
 3.232281995875306620e+03
 3.269314809410677299e+03
 3.302672687868505363e+03
 3.332050075546342669e+03
 3.357172374179262079e+03
 3.377793913598402924e+03
 3.393705867504814250e+03
 3.404749823463869234e+03
 3.410831997765843880e+03
 3.411933150020689936e+03
 3.408109791443420818e+03
 3.399482895696994092e+03
 3.386210561552076342e+03
 </DataArray>
 <DataArray Name="mu" type="Float32" NumberOfComponents="1" format="ascii">
 1.853126952258717352e-05
 1.853126952258717352e-05
 1.853126952258717352e-05
 1.853126952258717352e-05
 1.853126952258717352e-05
 1.853126952258717352e-05
 1.853126952258717352e-05
 1.853126952258717352e-05
 1.853126952258717352e-05
 1.853126952258717352e-05
 1.853126952258717352e-05
 1.853126952258717352e-05
 1.853126952258717352e-05
 1.853126952258717352e-05
 1.853126952258717352e-05
 1.853126952258717352e-05
 1.853126952258717352e-05
 1.853126952258717352e-05
 1.853126952258717352e-05
 1.853126952258717352e-05
 </DataArray>
 <DataArray Name="k" type="Float32" NumberOfComponents="1" format="ascii">
 2.626199291280435430e-02
 2.626199291280435430e-02
 2.626199291280435430e-02
 2.626199291280435430e-02
 2.626199291280435430e-02
 2.626199291280435430e-02
 2.626199291280435430e-02
 2.626199291280435430e-02
 2.626199291280435430e-02
 2.626199291280435430e-02
 2.626199291280435430e-02
 2.626199291280435430e-02
 2.626199291280435430e-02
 2.626199291280435430e-02
 2.626199291280435430e-02
 2.626199291280435430e-02
 2.626199291280435430e-02
 2.626199291280435430e-02
 2.626199291280435430e-02
 2.626199291280435430e-02
 </DataArray>
 <DataArray Name="mu_t" type="Float32" NumberOfComponents="1" format="ascii">
 0.000000000000000000e+00
 0.000000000000000000e+00
 0.000000000000000000e+00
 0.000000000000000000e+00
 0.000000000000000000e+00
 0.000000000000000000e+00
 0.000000000000000000e+00
 0.000000000000000000e+00
 0.000000000000000000e+00
 0.000000000000000000e+00
 0.000000000000000000e+00
 0.000000000000000000e+00
 0.000000000000000000e+00
 0.000000000000000000e+00
 0.000000000000000000e+00
 0.000000000000000000e+00
 0.000000000000000000e+00
 0.000000000000000000e+00
 0.000000000000000000e+00
 0.000000000000000000e+00
 </DataArray>
 <DataArray Name="k_t" type="Float32" NumberOfComponents="1" format="ascii">
 0.000000000000000000e+00
 0.000000000000000000e+00
 0.000000000000000000e+00
 0.000000000000000000e+00
 0.000000000000000000e+00
 0.000000000000000000e+00
 0.000000000000000000e+00
 0.000000000000000000e+00
 0.000000000000000000e+00
 0.000000000000000000e+00
 0.000000000000000000e+00
 0.000000000000000000e+00
 0.000000000000000000e+00
 0.000000000000000000e+00
 0.000000000000000000e+00
 0.000000000000000000e+00
 0.000000000000000000e+00
 0.000000000000000000e+00
 0.000000000000000000e+00
 0.000000000000000000e+00
 </DataArray>
 <DataArray Name="S" type="Float32" NumberOfComponents="1" format="ascii">
 0.000000000000000000e+00
 0.000000000000000000e+00
 0.000000000000000000e+00
 0.000000000000000000e+00
 0.000000000000000000e+00
 0.000000000000000000e+00
 0.000000000000000000e+00
 0.000000000000000000e+00
 0.000000000000000000e+00
 0.000000000000000000e+00
 0.000000000000000000e+00
 0.000000000000000000e+00
 0.000000000000000000e+00
 0.000000000000000000e+00
 0.000000000000000000e+00
 0.000000000000000000e+00
 0.000000000000000000e+00
 0.000000000000000000e+00
 0.000000000000000000e+00
 0.000000000000000000e+00
 </DataArray>
 <DataArray Name="massf[0]-Ar" type="Float32" NumberOfComponents="1" format="ascii">
 0.000000000000000000e+00
 0.000000000000000000e+00
 0.000000000000000000e+00
 0.000000000000000000e+00
 0.000000000000000000e+00
 0.000000000000000000e+00
 0.000000000000000000e+00
 0.000000000000000000e+00
 0.000000000000000000e+00
 0.000000000000000000e+00
 0.000000000000000000e+00
 0.000000000000000000e+00
 0.000000000000000000e+00
 0.000000000000000000e+00
 0.000000000000000000e+00
 0.000000000000000000e+00
 0.000000000000000000e+00
 0.000000000000000000e+00
 0.000000000000000000e+00
 0.000000000000000000e+00
 </DataArray>
 <DataArray Name="massf[1]-He" type="Float32" NumberOfComponents="1" format="ascii">
 1.838556692347872101e-04
 1.720964158644592158e-04
 1.601788773895720984e-04
 1.482045100080742715e-04
 1.362836994217401794e-04
 1.245277275613225314e-04
 1.130427537810053663e-04
 1.019260529793211115e-04
 9.126403055623874484e-05
 8.113130579660050455e-05
 7.159026614481789211e-05
 6.269073415076860422e-05
 5.446961863633422021e-05
 4.695058666865940182e-05
 4.014388374865427898e-05
 3.404645358113159007e-05
 2.864248025696795045e-05
 2.390441421893206309e-05
 1.979447036826021111e-05
 1.626651989300946483e-05
 </DataArray>
 <DataArray Name="massf[2]-N" type="Float32" NumberOfComponents="1" format="ascii">
 0.000000000000000000e+00
 0.000000000000000000e+00
 0.000000000000000000e+00
 0.000000000000000000e+00
 0.000000000000000000e+00
 0.000000000000000000e+00
 0.000000000000000000e+00
 0.000000000000000000e+00
 0.000000000000000000e+00
 0.000000000000000000e+00
 0.000000000000000000e+00
 0.000000000000000000e+00
 0.000000000000000000e+00
 0.000000000000000000e+00
 0.000000000000000000e+00
 0.000000000000000000e+00
 0.000000000000000000e+00
 0.000000000000000000e+00
 0.000000000000000000e+00
 0.000000000000000000e+00
 </DataArray>
 <DataArray Name="massf[3]-N2" type="Float32" NumberOfComponents="1" format="ascii">
 7.561887333694178315e-01
 7.561976272195140014e-01
 7.562066407850334127e-01
 7.562156973318341358e-01
 7.562247133721423653e-01
 7.562336047403415140e-01
 7.562422911451620600e-01
 7.562506990148951669e-01
 7.562587629987356230e-01
 7.562664266600450658e-01
 7.562736428134652078e-01
 7.562803737768174495e-01
 7.562865916349336137e-01
 7.562922784877538218e-01
 7.562974265863208201e-01
 7.563020382421951071e-01
 7.563061254173889525e-01
 7.563097089483975521e-01
 7.563128174131411585e-01
 7.563154857001221920e-01
 </DataArray>
 <DataArray Name="massf[4]-NO" type="Float32" NumberOfComponents="1" format="ascii">
 0.000000000000000000e+00
 0.000000000000000000e+00
 0.000000000000000000e+00
 0.000000000000000000e+00
 0.000000000000000000e+00
 0.000000000000000000e+00
 0.000000000000000000e+00
 0.000000000000000000e+00
 0.000000000000000000e+00
 0.000000000000000000e+00
 0.000000000000000000e+00
 0.000000000000000000e+00
 0.000000000000000000e+00
 0.000000000000000000e+00
 0.000000000000000000e+00
 0.000000000000000000e+00
 0.000000000000000000e+00
 0.000000000000000000e+00
 0.000000000000000000e+00
 0.000000000000000000e+00
 </DataArray>
 <DataArray Name="massf[5]-O" type="Float32" NumberOfComponents="1" format="ascii">
 0.000000000000000000e+00
 0.000000000000000000e+00
 0.000000000000000000e+00
 0.000000000000000000e+00
 0.000000000000000000e+00
 0.000000000000000000e+00
 0.000000000000000000e+00
 0.000000000000000000e+00
 0.000000000000000000e+00
 0.000000000000000000e+00
 0.000000000000000000e+00
 0.000000000000000000e+00
 0.000000000000000000e+00
 0.000000000000000000e+00
 0.000000000000000000e+00
 0.000000000000000000e+00
 0.000000000000000000e+00
 0.000000000000000000e+00
 0.000000000000000000e+00
 0.000000000000000000e+00
 </DataArray>
 <DataArray Name="massf[6]-O2" type="Float32" NumberOfComponents="1" format="ascii">
 2.436274109613476013e-01
 2.436302763646216174e-01
 2.436331803375770266e-01
 2.436360981581578711e-01
 2.436390029284359882e-01
 2.436418675320971838e-01
 2.436446661010569226e-01
 2.436473749321254878e-01
 2.436499729707080064e-01
 2.436524420341583952e-01
 2.436547669203899258e-01
 2.436569354890319172e-01
 2.436589387464298817e-01
 2.436607709255774190e-01
 2.436624295299306964e-01
 2.436639153042237382e-01
 2.436652321023542178e-01
 2.436663866373836584e-01
 2.436673881164906907e-01
 2.436682477799848867e-01
 </DataArray>
 <DataArray Name="dt_chem" type="Float32" NumberOfComponents="1" format="ascii">
 -1.000000000000000000e+00
 -1.000000000000000000e+00
 -1.000000000000000000e+00
 -1.000000000000000000e+00
 -1.000000000000000000e+00
 -1.000000000000000000e+00
 -1.000000000000000000e+00
 -1.000000000000000000e+00
 -1.000000000000000000e+00
 -1.000000000000000000e+00
 -1.000000000000000000e+00
 -1.000000000000000000e+00
 -1.000000000000000000e+00
 -1.000000000000000000e+00
 -1.000000000000000000e+00
 -1.000000000000000000e+00
 -1.000000000000000000e+00
 -1.000000000000000000e+00
 -1.000000000000000000e+00
 -1.000000000000000000e+00
 </DataArray>
 <DataArray Name="u" type="Float32" NumberOfComponents="1" format="ascii">
 3.389124582168467343e+07
 3.515977291630025953e+07
 3.647538101892169565e+07
 3.781270002765589952e+07
 3.914575549547652900e+07
 4.045023725547845662e+07
 4.170468784080807120e+07
 4.289067769699837267e+07
 4.399233575704408437e+07
 4.499566344957034290e+07
 4.588796498870321363e+07
 4.665757977843796462e+07
 4.729396569230596721e+07
 4.778807671467308700e+07
 4.813290807154797018e+07
 4.832404535837051272e+07
 4.836004840625581145e+07
 4.824251844963608682e+07
 4.797572591508422792e+07
 4.756569988162581623e+07
 </DataArray>
 <DataArray Name="T" type="Float32" NumberOfComponents="1" format="ascii">
 2.483408958906372573e+04
 2.564908328143964172e+04
 2.649433790366841640e+04
 2.735355833996345973e+04
 2.821005992388924642e+04
 2.904822565237962408e+04
 2.985426974431967028e+04
 3.061635048640111199e+04
 3.132426902598043671e+04
 3.196902902346272822e+04
 3.254247094729585297e+04
 3.303710038331514806e+04
 3.344614169166007923e+04
 3.376378072039596009e+04
 3.398551508388645743e+04
 3.410850698390995240e+04
 3.413182984343696444e+04
 3.405651147045999824e+04
 3.388529494501758745e+04
 3.362205367213689897e+04
 </DataArray>
 <DataArray Name="vel.vector" type="Float32" NumberOfComponents="3" format="ascii">
 1.096681542968750000e+04 6.650211181640625000e+02 0.000000000000000000e+00
 1.080892871093750000e+04 6.565338745117187500e+02 0.000000000000000000e+00
 1.064439453125000000e+04 6.473007202148437500e+02 0.000000000000000000e+00
 1.047868261718750000e+04 6.374615478515625000e+02 0.000000000000000000e+00
 1.031671191406250000e+04 6.271873168945312500e+02 0.000000000000000000e+00
 1.016228808593750000e+04 6.166590576171875000e+02 0.000000000000000000e+00
 1.001787207031250000e+04 6.060480957031250000e+02 0.000000000000000000e+00
 9.884639648437500000e+03 5.955017089843750000e+02 0.000000000000000000e+00
 9.762738281250000000e+03 5.851336059570312500e+02 0.000000000000000000e+00
 9.651619140625000000e+03 5.750196533203125000e+02 0.000000000000000000e+00
 9.550340820312500000e+03 5.651961669921875000e+02 0.000000000000000000e+00
 9.457815429687500000e+03 5.556597290039062500e+02 0.000000000000000000e+00
 9.372952148437500000e+03 5.463673095703125000e+02 0.000000000000000000e+00
 9.294732421875000000e+03 5.372354125976562500e+02 0.000000000000000000e+00
 9.222209960937500000e+03 5.281381835937500000e+02 0.000000000000000000e+00
 9.154478515625000000e+03 5.189045410156250000e+02 0.000000000000000000e+00
 9.090592773437500000e+03 5.093139343261718750e+02 0.000000000000000000e+00
 9.029476562500000000e+03 4.990917663574218750e+02 0.000000000000000000e+00
 8.969778320312500000e+03 4.879041748046875000e+02 0.000000000000000000e+00
 8.909660156250000000e+03 4.753530578613281250e+02 0.000000000000000000e+00
 </DataArray>
</CellData>
</Piece>
</UnstructuredGrid>
</VTKFile>
