<VTKFile type="UnstructuredGrid" byte_order="BigEndian">
<UnstructuredGrid><Piece NumberOfPoints="24" NumberOfCells="11">
<Points>
 <DataArray type="Float32" NumberOfComponents="3" format="ascii">
 8.994118690490722656e+00 0.000000000000000000e+00 0.000000000000000000e+00
 9.003347396850585938e+00 0.000000000000000000e+00 0.000000000000000000e+00
 9.012575149536132812e+00 0.000000000000000000e+00 0.000000000000000000e+00
 9.021802902221679688e+00 0.000000000000000000e+00 0.000000000000000000e+00
 9.031031608581542969e+00 0.000000000000000000e+00 0.000000000000000000e+00
 9.040259361267089844e+00 0.000000000000000000e+00 0.000000000000000000e+00
 9.049487113952636719e+00 0.000000000000000000e+00 0.000000000000000000e+00
 9.058715820312500000e+00 0.000000000000000000e+00 0.000000000000000000e+00
 9.067943572998046875e+00 0.000000000000000000e+00 0.000000000000000000e+00
 9.077172279357910156e+00 0.000000000000000000e+00 0.000000000000000000e+00
 9.086400032043457031e+00 0.000000000000000000e+00 0.000000000000000000e+00
 9.095627784729003906e+00 0.000000000000000000e+00 0.000000000000000000e+00
 8.994118690490722656e+00 6.603299826383590698e-02 0.000000000000000000e+00
 9.003347396850585938e+00 6.659963726997375488e-02 0.000000000000000000e+00
 9.012575149536132812e+00 6.716627627611160278e-02 0.000000000000000000e+00
 9.021802902221679688e+00 6.773290783166885376e-02 0.000000000000000000e+00
 9.031031608581542969e+00 6.829954683780670166e-02 0.000000000000000000e+00
 9.040259361267089844e+00 6.886617839336395264e-02 0.000000000000000000e+00
 9.049487113952636719e+00 6.943281739950180054e-02 0.000000000000000000e+00
 9.058715820312500000e+00 6.999945640563964844e-02 0.000000000000000000e+00
 9.067943572998046875e+00 7.056608796119689941e-02 0.000000000000000000e+00
 9.077172279357910156e+00 7.113272696733474731e-02 0.000000000000000000e+00
 9.086400032043457031e+00 7.169936597347259521e-02 0.000000000000000000e+00
 9.095627784729003906e+00 7.226599752902984619e-02 0.000000000000000000e+00
 </DataArray>
</Points>
<Cells>
 <DataArray type="Int32" Name="connectivity" format="ascii">
 0 1 13 12
 1 2 14 13
 2 3 15 14
 3 4 16 15
 4 5 17 16
 5 6 18 17
 6 7 19 18
 7 8 20 19
 8 9 21 20
 9 10 22 21
 10 11 23 22
 </DataArray>
 <DataArray type="Int32" Name="offsets" format="ascii">
 4
 8
 12
 16
 20
 24
 28
 32
 36
 40
 44
 </DataArray>
 <DataArray type="UInt8" Name="types" format="ascii">
 9
 9
 9
 9
 9
 9
 9
 9
 9
 9
 9
 </DataArray>
</Cells>
<CellData>
 <DataArray Name="pos.x" type="Float32" NumberOfComponents="1" format="ascii">
 8.998739616200001734e+00
 9.007967651441592949e+00
 9.017195687617716615e+00
 9.026423724707241192e+00
 9.035651762685063204e+00
 9.044879801529498664e+00
 9.054107841223588693e+00
 9.063335881738195710e+00
 9.072563923064404179e+00
 9.081791965174003778e+00
 9.091020008052508317e+00
 </DataArray>
 <DataArray Name="pos.y" type="Float32" NumberOfComponents="1" format="ascii">
 3.315836082404532287e-02
 3.344167729676356809e-02
 3.372499379820641241e-02
 3.400831032764265599e-02
 3.429162688437763229e-02
 3.457494346775642768e-02
 3.485826007711936153e-02
 3.514157671182610576e-02
 3.542489337129013649e-02
 3.570821005490745076e-02
 3.599152676211025970e-02
 </DataArray>
 <DataArray Name="pos.z" type="Float32" NumberOfComponents="1" format="ascii">
 0.000000000000000000e+00
 0.000000000000000000e+00
 0.000000000000000000e+00
 0.000000000000000000e+00
 0.000000000000000000e+00
 0.000000000000000000e+00
 0.000000000000000000e+00
 0.000000000000000000e+00
 0.000000000000000000e+00
 0.000000000000000000e+00
 0.000000000000000000e+00
 </DataArray>
 <DataArray Name="volume" type="Float32" NumberOfComponents="1" format="ascii">
 6.119730129376943495e-04
 6.172019848144083554e-04
 6.224309566900121382e-04
 6.276599285660600103e-04
 6.328889004423299269e-04
 6.381178723181557544e-04
 6.433468441940926041e-04
 6.485758160703625208e-04
 6.538047879461883483e-04
 6.590337598223472426e-04
 6.642627316982840924e-04
 </DataArray>
 <DataArray Name="rho" type="Float32" NumberOfComponents="1" format="ascii">
 8.707668882471725907e-03
 8.707668882471725907e-03
 8.707668882471725907e-03
 8.707668882471725907e-03
 8.707668882471725907e-03
 8.707668882471725907e-03
 8.707668882471725907e-03
 8.707668882471725907e-03
 8.707668882471725907e-03
 8.707668882471725907e-03
 8.707668882471725907e-03
 </DataArray>
 <DataArray Name="vel.x" type="Float32" NumberOfComponents="1" format="ascii">
 0.000000000000000000e+00
 0.000000000000000000e+00
 0.000000000000000000e+00
 0.000000000000000000e+00
 0.000000000000000000e+00
 0.000000000000000000e+00
 0.000000000000000000e+00
 0.000000000000000000e+00
 0.000000000000000000e+00
 0.000000000000000000e+00
 0.000000000000000000e+00
 </DataArray>
 <DataArray Name="vel.y" type="Float32" NumberOfComponents="1" format="ascii">
 0.000000000000000000e+00
 0.000000000000000000e+00
 0.000000000000000000e+00
 0.000000000000000000e+00
 0.000000000000000000e+00
 0.000000000000000000e+00
 0.000000000000000000e+00
 0.000000000000000000e+00
 0.000000000000000000e+00
 0.000000000000000000e+00
 0.000000000000000000e+00
 </DataArray>
 <DataArray Name="vel.z" type="Float32" NumberOfComponents="1" format="ascii">
 0.000000000000000000e+00
 0.000000000000000000e+00
 0.000000000000000000e+00
 0.000000000000000000e+00
 0.000000000000000000e+00
 0.000000000000000000e+00
 0.000000000000000000e+00
 0.000000000000000000e+00
 0.000000000000000000e+00
 0.000000000000000000e+00
 0.000000000000000000e+00
 </DataArray>
 <DataArray Name="p" type="Float32" NumberOfComponents="1" format="ascii">
 1.000000000000000000e+03
 1.000000000000000000e+03
 1.000000000000000000e+03
 1.000000000000000000e+03
 1.000000000000000000e+03
 1.000000000000000000e+03
 1.000000000000000000e+03
 1.000000000000000000e+03
 1.000000000000000000e+03
 1.000000000000000000e+03
 1.000000000000000000e+03
 </DataArray>
 <DataArray Name="a" type="Float32" NumberOfComponents="1" format="ascii">
 4.009710933216483681e+02
 4.009710933216483681e+02
 4.009710933216483681e+02
 4.009710933216483681e+02
 4.009710933216483681e+02
 4.009710933216483681e+02
 4.009710933216483681e+02
 4.009710933216483681e+02
 4.009710933216483681e+02
 4.009710933216483681e+02
 4.009710933216483681e+02
 </DataArray>
 <DataArray Name="mu" type="Float32" NumberOfComponents="1" format="ascii">
 2.287039282521013801e-05
 2.287039282521013801e-05
 2.287039282521013801e-05
 2.287039282521013801e-05
 2.287039282521013801e-05
 2.287039282521013801e-05
 2.287039282521013801e-05
 2.287039282521013801e-05
 2.287039282521013801e-05
 2.287039282521013801e-05
 2.287039282521013801e-05
 </DataArray>
 <DataArray Name="k" type="Float32" NumberOfComponents="1" format="ascii">
 3.360419487637088254e-02
 3.360419487637088254e-02
 3.360419487637088254e-02
 3.360419487637088254e-02
 3.360419487637088254e-02
 3.360419487637088254e-02
 3.360419487637088254e-02
 3.360419487637088254e-02
 3.360419487637088254e-02
 3.360419487637088254e-02
 3.360419487637088254e-02
 </DataArray>
 <DataArray Name="mu_t" type="Float32" NumberOfComponents="1" format="ascii">
 0.000000000000000000e+00
 0.000000000000000000e+00
 0.000000000000000000e+00
 0.000000000000000000e+00
 0.000000000000000000e+00
 0.000000000000000000e+00
 0.000000000000000000e+00
 0.000000000000000000e+00
 0.000000000000000000e+00
 0.000000000000000000e+00
 0.000000000000000000e+00
 </DataArray>
 <DataArray Name="k_t" type="Float32" NumberOfComponents="1" format="ascii">
 0.000000000000000000e+00
 0.000000000000000000e+00
 0.000000000000000000e+00
 0.000000000000000000e+00
 0.000000000000000000e+00
 0.000000000000000000e+00
 0.000000000000000000e+00
 0.000000000000000000e+00
 0.000000000000000000e+00
 0.000000000000000000e+00
 0.000000000000000000e+00
 </DataArray>
 <DataArray Name="S" type="Float32" NumberOfComponents="1" format="ascii">
 0.000000000000000000e+00
 0.000000000000000000e+00
 0.000000000000000000e+00
 0.000000000000000000e+00
 0.000000000000000000e+00
 0.000000000000000000e+00
 0.000000000000000000e+00
 0.000000000000000000e+00
 0.000000000000000000e+00
 0.000000000000000000e+00
 0.000000000000000000e+00
 </DataArray>
 <DataArray Name="massf[0]-air" type="Float32" NumberOfComponents="1" format="ascii">
 1.000000000000000000e+00
 1.000000000000000000e+00
 1.000000000000000000e+00
 1.000000000000000000e+00
 1.000000000000000000e+00
 1.000000000000000000e+00
 1.000000000000000000e+00
 1.000000000000000000e+00
 1.000000000000000000e+00
 1.000000000000000000e+00
 1.000000000000000000e+00
 </DataArray>
 <DataArray Name="u" type="Float32" NumberOfComponents="1" format="ascii">
 2.871032458563536638e+05
 2.871032458563536638e+05
 2.871032458563536638e+05
 2.871032458563536638e+05
 2.871032458563536638e+05
 2.871032458563536638e+05
 2.871032458563536638e+05
 2.871032458563536638e+05
 2.871032458563536638e+05
 2.871032458563536638e+05
 2.871032458563536638e+05
 </DataArray>
 <DataArray Name="T" type="Float32" NumberOfComponents="1" format="ascii">
 4.000000000000000000e+02
 4.000000000000000000e+02
 4.000000000000000000e+02
 4.000000000000000000e+02
 4.000000000000000000e+02
 4.000000000000000000e+02
 4.000000000000000000e+02
 4.000000000000000000e+02
 4.000000000000000000e+02
 4.000000000000000000e+02
 4.000000000000000000e+02
 </DataArray>
 <DataArray Name="vel.vector" type="Float32" NumberOfComponents="3" format="ascii">
 0.000000000000000000e+00 0.000000000000000000e+00 0.000000000000000000e+00
 0.000000000000000000e+00 0.000000000000000000e+00 0.000000000000000000e+00
 0.000000000000000000e+00 0.000000000000000000e+00 0.000000000000000000e+00
 0.000000000000000000e+00 0.000000000000000000e+00 0.000000000000000000e+00
 0.000000000000000000e+00 0.000000000000000000e+00 0.000000000000000000e+00
 0.000000000000000000e+00 0.000000000000000000e+00 0.000000000000000000e+00
 0.000000000000000000e+00 0.000000000000000000e+00 0.000000000000000000e+00
 0.000000000000000000e+00 0.000000000000000000e+00 0.000000000000000000e+00
 0.000000000000000000e+00 0.000000000000000000e+00 0.000000000000000000e+00
 0.000000000000000000e+00 0.000000000000000000e+00 0.000000000000000000e+00
 0.000000000000000000e+00 0.000000000000000000e+00 0.000000000000000000e+00
 </DataArray>
</CellData>
</Piece>
</UnstructuredGrid>
</VTKFile>
